 Gaussian 09, Revision D.01,
 Gaussian 09:  AM64L-G09RevD.01 24-Apr-2013

 --------------------------------------
 # opt freq hf/sto-3g geom=connectivity
 --------------------------------------

 -------------------
 Title Card Required
 -------------------
 Symbolic Z-matrix:
 Charge =  0 Multiplicity = 1

 SCF Done:  E(RHF) =  -78.3043466743     A.U. after    7 cycles
 SCF Done:  E(RHF) =  -78.3060368500     A.U. after    7 cycles
 SCF Done:  E(RHF) =  -78.3061753024     A.U. after    6 cycles
 SCF Done:  E(RHF) =  -78.3061790039     A.U. after    6 cycles
 Optimization completed.
    -- Stationary point found.
 Normal termination of Gaussian 09 at Wed Feb 19 03:30:59 2025.

 ---------------------------------------------------------------
 #N Geom=AllCheck Guess=TCheck SCRF=Check GenChk RHF/STO-3G Freq
 ---------------------------------------------------------------

 Structure from the checkpoint file:  "c2h6.chk"
 -------------------
 Title Card Required
 -------------------
 Charge =  0 Multiplicity = 1

                         Standard orientation:
 ---------------------------------------------------------------------
 Center     Atomic      Atomic             Coordinates (Angstroms)
 Number     Number       Type             X           Y           Z
 ---------------------------------------------------------------------
      1          6           0        0.000000    0.000000    0.769036
      2          1           0        0.000000    1.015367    1.153678
      3          1           0        0.879334   -0.507684    1.153678
      4          1           0       -0.879334   -0.507684    1.153678
      5          6           0        0.000000    0.000000   -0.769036
      6          1           0        0.879334    0.507684   -1.153678
      7          1           0        0.000000   -1.015367   -1.153678
      8          1           0       -0.879334    0.507684   -1.153678
 ---------------------------------------------------------------------

 SCF Done:  E(RHF) =  -78.3061790039     A.U. after    1 cycles

 The electronic state is 1-A1G.
 Alpha  occ. eigenvalues --  -11.03549 -11.03518  -0.98102  -0.81230  -0.57203
 Alpha  occ. eigenvalues --   -0.57203  -0.47169  -0.46045  -0.46045
 Alpha virt. eigenvalues --    0.65574   0.65574   0.68670   0.73743   0.78167
 Alpha virt. eigenvalues --    0.78941   0.78941

 Mulliken charges:
               1
     1  C   -0.174930
     2  H    0.058310
     3  H    0.058310
     4  H    0.058310
     5  C   -0.174930
     6  H    0.058310
     7  H    0.058310
     8  H    0.058310
 Sum of Mulliken charges =   0.00000

 Dipole moment (field-independent basis, Debye):
    X=              0.0000    Y=              0.0000    Z=              0.0000  Tot=              0.0000
 Quadrupole moment (field-independent basis, Debye-Ang):
   XX=            -14.0356   YY=            -14.0356   ZZ=            -14.4263
   XY=              0.0000   XZ=              0.0000   YZ=              0.0000

  Exact polarizability:  10.779   0.000  10.779   0.000   0.000  11.136
 Approx polarizability:   8.876   0.000   8.876   0.000   0.000   7.866

                      1                      2                      3
                     A1U                    EU                     EU
 Frequencies --    310.6967               979.0562               979.0562
 Red. masses --      1.0078                 1.0535                 1.0535
 Frc consts  --      0.0573                 0.5950                 0.5950
 IR Inten    --      0.0000                 3.6050                 3.6050
 Raman Activ --      0.0000                 0.0000                 0.0000

                      4                      5                      6
                     A1G                    EG                     EG
 Frequencies --   1192.3125              1458.3182              1458.3182
 Red. masses --      2.6614                 1.4186                 1.4186
 Frc consts  --      2.2291                 1.7776                 1.7776
 IR Inten    --      0.0000                 0.0000                 0.0000
 Raman Activ --     10.2024                 5.8905                 5.8905

                      7                      8                      9
                     A2U                    A1G                    EG
 Frequencies --   1715.2098              1761.8751              1831.8877
 Red. masses --      1.1955                 1.3621                 1.0297
 Frc consts  --      2.0722                 2.4913                 2.0358
 IR Inten    --      0.7662                 0.0000                 0.0000
 Raman Activ --      0.0000                 6.4781                33.4524

                     10                     11                     12
                     EG                     EU                     EU
 Frequencies --   1831.8877              1847.6331              1847.6331
 Red. masses --      1.0297                 1.0618                 1.0618
 Frc consts  --      2.0358                 2.1356                 2.1356
 IR Inten    --      0.0000                 2.7038                 2.7038
 Raman Activ --     33.4524                 0.0000                 0.0000

                     13                     14                     15
                     A2U                    A1G                    EG
 Frequencies --   3571.6585              3572.7032              3748.2232
 Red. masses --      1.0362                 1.0439                 1.1106
 Frc consts  --      7.7879                 7.8508                 9.1928
 IR Inten    --      4.9208                 0.0000                 0.0000
 Raman Activ --      0.0000                77.8784                55.1302

                     16                     17                     18
                     EG                     EU                     EU
 Frequencies --   3748.2232              3760.3557              3760.3557
 Red. masses --      1.1106                 1.1077                 1.1077
 Frc consts  --      9.1928                 9.2286                 9.2286
 IR Inten    --      0.0000                 4.2249                 4.2249
 Raman Activ --     55.1302                 0.0000                 0.0000

 - Thermochemistry -
 -------------------
 Temperature   298.150 Kelvin.  Pressure   1.00000 Atm.
 Atom     1 has atomic number  6 and mass  12.00000

 Molecular mass:    30.04695 amu.
 Principal axes and moments of inertia in atomic units:
                           1         2         3
     Eigenvalues --    22.26284  90.56017  90.56017
           X            0.00000  -0.52410   0.85166
           Y            0.00000   0.85166   0.52410
           Z            1.00000   0.00000   0.00000
 This molecule is a prolate symmetric top.
 Rotational symmetry number  6.
 Rotational temperatures (Kelvin)      3.89051     0.95642     0.95642
 Rotational constants (GHZ):          81.06520    19.92864    19.92864
 Zero-point vibrational energy     235517.2 (Joules/Mol)
                                   56.28997 (Kcal/Mol)
 Warning -- explicit consideration of   1 degrees of freedom as
           vibrations may cause significant error
 Vibrational temperatures:    447.02  1408.64  1408.64  1715.47  2098.19
          (Kelvin)           2098.19  2467.80  2534.94  2635.67  2635.67
                             2658.33  2658.33  5138.81  5140.32  5392.85
                             5392.85  5410.31  5410.31

 Zero-point correction=                           0.089704 (Hartree/Particle)
 Thermal correction to Energy=                    0.093060
 Thermal correction to Enthalpy=                  0.094005
 Thermal correction to Gibbs Free Energy=         0.068316
 Sum of electronic and zero-point Energies=            -78.216475
 Sum of electronic and thermal Energies=               -78.213119
 Sum of electronic and thermal Enthalpies=             -78.212174
 Sum of electronic and thermal Free Energies=          -78.237863

                     E (Thermal)             CV                S
                      KCal/Mol        Cal/Mol-Kelvin    Cal/Mol-Kelvin
 Total                   58.396              8.951             54.066
 Electronic               0.000              0.000              0.000
 Translational            0.889              2.981             36.134
 Rotational               0.889              2.981             16.280
 Vibrational             56.619              2.989              1.652
 Vibration     1          0.700              1.653              1.359

 Optimization completed.
    -- Stationary point found.
 Normal termination of Gaussian 09 at Wed Feb 19 03:31:00 2025.
