 Gaussian 09, Revision D.01,
 Gaussian 09:  AM64L-G09RevD.01 24-Apr-2013

 --------------------------------------
 # opt freq hf/sto-3g geom=connectivity
 --------------------------------------

 -------------------
 Title Card Required
 -------------------
 Symbolic Z-matrix:
 Charge =  0 Multiplicity = 1

 SCF Done:  E(RHF) =  -77.0690470305     A.U. after    7 cycles
 SCF Done:  E(RHF) =  -77.0731283699     A.U. after    7 cycles
 SCF Done:  E(RHF) =  -77.0739310291     A.U. after    6 cycles
 SCF Done:  E(RHF) =  -77.0739543896     A.U. after    6 cycles
 Optimization completed.
    -- Stationary point found.
 Normal termination of Gaussian 09 at Wed Feb 19 03:22:48 2025.

 ---------------------------------------------------------------
 #N Geom=AllCheck Guess=TCheck SCRF=Check GenChk RHF/STO-3G Freq
 ---------------------------------------------------------------

 Structure from the checkpoint file:  "ethene1.chk"
 -------------------
 Title Card Required
 -------------------
 Charge =  0 Multiplicity = 1

                         Standard orientation:
 ---------------------------------------------------------------------
 Center     Atomic      Atomic             Coordinates (Angstroms)
 Number     Number       Type             X           Y           Z
 ---------------------------------------------------------------------
      1          6           0        0.000000    0.000000    0.653018
      2          6           0        0.000000    0.000000   -0.653018
      3          1           0        0.000000    0.915619   -1.228888
      4          1           0        0.000000    0.915619    1.228888
      5          1           0        0.000000   -0.915619   -1.228888
      6          1           0        0.000000   -0.915619    1.228888
 ---------------------------------------------------------------------

 SCF Done:  E(RHF) =  -77.0739543896     A.U. after    1 cycles

 The electronic state is 1-AG.
 Alpha  occ. eigenvalues --  -11.02170 -11.02066  -0.98772  -0.74585  -0.60578
 Alpha  occ. eigenvalues --   -0.54026  -0.45821  -0.33551
 Alpha virt. eigenvalues --    0.32828   0.61919   0.70016   0.70401   0.94816
 Alpha virt. eigenvalues --    1.02781

 Mulliken charges:
               1
     1  C   -0.127230
     2  C   -0.127230
     3  H    0.063615
     4  H    0.063615
     5  H    0.063615
     6  H    0.063615
 Sum of Mulliken charges =   0.00000

 Dipole moment (field-independent basis, Debye):
    X=              0.0000    Y=              0.0000    Z=              0.0000  Tot=              0.0000
 Quadrupole moment (field-independent basis, Debye-Ang):
   XX=            -13.4615   YY=            -11.8439   ZZ=            -11.9476
   XY=              0.0000   XZ=              0.0000   YZ=              0.0000

  Exact polarizability:   2.470   0.000  10.740   0.000   0.000  18.995
 Approx polarizability:   1.887   0.000   8.844   0.000   0.000  16.440

                      1                      2                      3
                     B2U                    B3U                    B2G
 Frequencies --    945.8343              1170.6233              1178.7142
 Red. masses --      1.0430                 1.1607                 1.5309
 Frc consts  --      0.5498                 0.9372                 1.2531
 IR Inten    --      0.2921                30.6175                 0.0000
 Raman Activ --      0.0000                 0.0000                 0.9636

                      4                      5                      6
                     AU                     B3G                    AG
 Frequencies --   1276.1972              1442.3996              1617.7371
 Red. masses --      1.0078                 1.5273                 1.1838
 Frc consts  --      0.9671                 1.8722                 1.8254
 IR Inten    --      0.0000                 0.0000                 0.0000
 Raman Activ --      0.0000                 2.8388                41.2875

                      7                      8                      9
                     B1U                    AG                     B1U
 Frequencies --   1743.4219              2040.4540              3636.4968
 Red. masses --      1.1086                 3.2432                 1.0507
 Frc consts  --      1.9853                 7.9556                 8.1868
 IR Inten    --      1.4412                 0.0000                34.8320
 Raman Activ --      0.0000                11.1093                 0.0000

                     10                     11                     12
                     AG                     B3G                    B2U
 Frequencies --   3682.9319              3804.7960              3817.9958
 Red. masses --      1.0932                 1.1199                 1.1173
 Frc consts  --      8.7364                 9.5517                 9.5960
 IR Inten    --      0.0000                 0.0000                 0.0024
 Raman Activ --     75.6389                67.9808                 0.0000

 - Thermochemistry -
 -------------------
 Temperature   298.150 Kelvin.  Pressure   1.00000 Atm.
 Atom     1 has atomic number  6 and mass  12.00000

 Molecular mass:    28.03130 amu.
 Principal axes and moments of inertia in atomic units:
                           1         2         3
     Eigenvalues --    12.06904  58.28798  70.35702
           X            0.00000   0.00000   1.00000
           Y            0.00000   1.00000   0.00000
           Z            1.00000   0.00000   0.00000
 This molecule is an asymmetric top.
 Rotational symmetry number  4.
 Rotational temperatures (Kelvin)      7.17653     1.48596     1.23106
 Rotational constants (GHZ):         149.53483    30.96249    25.65119
 Zero-point vibrational energy     157653.5 (Joules/Mol)
                                   37.68008 (Kcal/Mol)
 Vibrational temperatures:   1360.84  1684.26  1695.90  1836.16  2075.29
          (Kelvin)           2327.56  2508.39  2935.75  5232.10  5298.91
                             5474.25  5493.24

 Zero-point correction=                           0.060047 (Hartree/Particle)
 Thermal correction to Energy=                    0.062986
 Thermal correction to Enthalpy=                  0.063930
 Thermal correction to Gibbs Free Energy=         0.039232
 Sum of electronic and zero-point Energies=            -77.013907
 Sum of electronic and thermal Energies=               -77.010969
 Sum of electronic and thermal Enthalpies=             -77.010024
 Sum of electronic and thermal Free Energies=          -77.034722

                     E (Thermal)             CV                S
                      KCal/Mol        Cal/Mol-Kelvin    Cal/Mol-Kelvin
 Total                   39.524              7.188             51.981
 Electronic               0.000              0.000              0.000
 Translational            0.889              2.981             35.927
 Rotational               0.889              2.981             15.789
 Vibrational             37.747              1.227              0.266

 Optimization completed.
    -- Stationary point found.
 Normal termination of Gaussian 09 at Wed Feb 19 03:22:49 2025.
