 Gaussian 09, Revision D.01,
 Gaussian 09:  AM64L-G09RevD.01 24-Apr-2013

 --------------------------------------
 # opt freq hf/sto-3g geom=connectivity
 --------------------------------------

 -------------------
 Title Card Required
 -------------------
 Symbolic Z-matrix:
 Charge =  0 Multiplicity = 1

 SCF Done:  E(RHF) =  -74.9607025103     A.U. after    7 cycles
 SCF Done:  E(RHF) =  -74.9650717129     A.U. after    8 cycles
 SCF Done:  E(RHF) =  -74.9658570181     A.U. after    6 cycles
 SCF Done:  E(RHF) =  -74.9659011708     A.U. after    6 cycles
 Optimization completed.
    -- Stationary point found.
 Normal termination of Gaussian 09 at Wed Feb 19 02:58:51 2025.

 ---------------------------------------------------------------
 #N Geom=AllCheck Guess=TCheck SCRF=Check GenChk RHF/STO-3G Freq
 ---------------------------------------------------------------

 Structure from the checkpoint file:  "h2o_monomer.chk"
 -------------------
 Title Card Required
 -------------------
 Charge =  0 Multiplicity = 1

                         Standard orientation:
 ---------------------------------------------------------------------
 Center     Atomic      Atomic             Coordinates (Angstroms)
 Number     Number       Type             X           Y           Z
 ---------------------------------------------------------------------
      1          8           0        0.000000    0.000000    0.127131
      2          1           0        0.000000    0.758016   -0.508524
      3          1           0        0.000000   -0.758016   -0.508524
 ---------------------------------------------------------------------

 SCF Done:  E(RHF) =  -74.9659011708     A.U. after    1 cycles

 The electronic state is 1-A1.
 Alpha  occ. eigenvalues --  -20.25155  -1.25761  -0.59394  -0.45973  -0.39262
 Alpha virt. eigenvalues --    0.58192   0.69286

 Mulliken charges:
               1
     1  O   -0.330666
     2  H    0.165333
     3  H    0.165333
 Sum of Mulliken charges =   0.00000

 Dipole moment (field-independent basis, Debye):
    X=              0.0000    Y=              0.0000    Z=             -1.7094  Tot=              1.7094
 Quadrupole moment (field-independent basis, Debye-Ang):
   XX=             -6.1255   YY=             -4.4854   ZZ=             -5.3333
   XY=              0.0000   XZ=              0.0000   YZ=              0.0000

  Exact polarizability:   0.040   0.000   5.506   0.000   0.000   2.565
 Approx polarizability:   0.020   0.000   3.937   0.000   0.000   2.605

                      1                      2                      3
                     A1                     A1                     B2
 Frequencies --   2169.7549              4141.6088              4392.7894
 Red. masses --      1.0785                 1.0491                 1.0774
 Frc consts  --      2.9915                10.6023                12.2489
 IR Inten    --      7.2490                44.2738                29.9427
 Raman Activ --      9.2627                47.7938                21.5398

 - Thermochemistry -
 -------------------
 Temperature   298.150 Kelvin.  Pressure   1.00000 Atm.
 Atom     1 has atomic number  8 and mass  15.99491

 Molecular mass:    18.01056 amu.
 Principal axes and moments of inertia in atomic units:
                           1         2         3
     Eigenvalues --     2.58292   4.13589   6.71881
           X            0.00000   0.00000   1.00000
           Y            1.00000   0.00000   0.00000
           Z            0.00000   1.00000   0.00000
 This molecule is an asymmetric top.
 Rotational symmetry number  2.
 Rotational temperatures (Kelvin)     33.53330    20.94198    12.89123
 Rotational constants (GHZ):         698.72140   436.36052   268.61007
 Zero-point vibrational energy      64025.1 (Joules/Mol)
                                   15.30235 (Kcal/Mol)
 Vibrational temperatures:   3121.79  5958.84  6320.24
          (Kelvin)

 Zero-point correction=                           0.024386 (Hartree/Particle)
 Thermal correction to Energy=                    0.027219
 Thermal correction to Enthalpy=                  0.028163
 Thermal correction to Gibbs Free Energy=         0.006649
 Sum of electronic and zero-point Energies=            -74.941515
 Sum of electronic and thermal Energies=               -74.938682
 Sum of electronic and thermal Enthalpies=             -74.937738
 Sum of electronic and thermal Free Energies=          -74.959253

                     E (Thermal)             CV                S
                      KCal/Mol        Cal/Mol-Kelvin    Cal/Mol-Kelvin
 Total                   17.080              5.968             45.281
 Electronic               0.000              0.000              0.000
 Translational            0.889              2.981             34.608
 Rotational               0.889              2.981             10.672
 Vibrational             15.303              0.006              0.001

 Optimization completed.
    -- Stationary point found.
 Normal termination of Gaussian 09 at Wed Feb 19 02:58:51 2025.
