 Gaussian 09, Revision D.01,
 Gaussian 09:  AM64L-G09RevD.01 24-Apr-2013

 --------------------------------------
 # opt freq hf/sto-3g geom=connectivity
 --------------------------------------

 -------------------
 Title Card Required
 -------------------
 Symbolic Z-matrix:
 Charge =  0 Multiplicity = 1

 SCF Done:  E(RHF) =  -149.941201838     A.U. after   10 cycles
 SCF Done:  E(RHF) =  -149.941222336     A.U. after    9 cycles
 SCF Done:  E(RHF) =  -149.941234139     A.U. after    9 cycles
 SCF Done:  E(RHF) =  -149.941238655     A.U. after    8 cycles
 SCF Done:  E(RHF) =  -149.941240026     A.U. after    8 cycles
 SCF Done:  E(RHF) =  -149.941242605     A.U. after    8 cycles
 SCF Done:  E(RHF) =  -149.941243816     A.U. after    8 cycles
 SCF Done:  E(RHF) =  -149.941244269     A.U. after    8 cycles
 Optimization completed.
    -- Stationary point found.
 Normal termination of Gaussian 09 at Wed Feb 19 03:13:43 2025.

 ---------------------------------------------------------------
 #N Geom=AllCheck Guess=TCheck SCRF=Check GenChk RHF/STO-3G Freq
 ---------------------------------------------------------------

 Structure from the checkpoint file:  "h2o_dimer.chk"
 -------------------
 Title Card Required
 -------------------
 Charge =  0 Multiplicity = 1

                         Standard orientation:
 ---------------------------------------------------------------------
 Center     Atomic      Atomic             Coordinates (Angstroms)
 Number     Number       Type             X           Y           Z
 ---------------------------------------------------------------------
      1          8           0        1.289090   -0.117069    0.011203
      2          1           0        1.686994    0.441016    0.721485
      3          1           0        1.683455    0.295855   -0.793940
      4          8           0       -1.440207    0.123712   -0.011363
      5          1           0       -1.706677   -0.823821    0.074683
      6          1           0       -0.454839    0.033802   -0.000943
 ---------------------------------------------------------------------

 SCF Done:  E(RHF) =  -149.941244269     A.U. after    1 cycles

 The electronic state is 1-A.
 Alpha  occ. eigenvalues --  -20.29424 -20.18606  -1.29691  -1.21297  -0.63145
 Alpha  occ. eigenvalues --   -0.57652  -0.49411  -0.44237  -0.38881  -0.34705
 Alpha virt. eigenvalues --    0.54226   0.65444   0.66393   0.78186

 Mulliken charges:
               1
     1  O   -0.333427
     2  H    0.189221
     3  H    0.189226
     4  O   -0.382858
     5  H    0.141385
     6  H    0.196452
 Sum of Mulliken charges =   0.00000

 Dipole moment (field-independent basis, Debye):
    X=              2.8254    Y=              0.0588    Z=             -0.0115  Tot=              2.8260
 Quadrupole moment (field-independent basis, Debye-Ang):
   XX=            -10.5580   YY=            -10.8497   ZZ=            -10.4435
   XY=              4.5280   XZ=             -0.4246   YZ=              0.0429

  Exact polarizability:   7.020   2.968   5.081  -0.260   0.049   5.426
 Approx polarizability:   5.125   1.848   4.538  -0.161  -0.050   3.894

                      1                      2                      3
                      A                      A                      A
 Frequencies --    111.6853               242.9690               280.9808
 Red. masses --      1.0479                 1.5085                 2.2778
 Frc consts  --      0.0077                 0.0525                 0.1060
 IR Inten    --    108.8202                62.4263               126.6526
 Raman Activ --     10.9510                 0.3833                 0.5084

                      4                      5                      6
                      A                      A                      A
 Frequencies --    289.6238               471.4294               734.5626
 Red. masses --      1.0533                 1.1431                 1.0458
 Frc consts  --      0.0521                 0.1497                 0.3325
 IR Inten    --      0.9322                79.8508               122.4178
 Raman Activ --     13.1143                 6.3531                 0.9669

                      7                      8                      9
                      A                      A                      A
 Frequencies --   2147.5895              2201.1476              4134.8148
 Red. masses --      1.0811                 1.0738                 1.0483
 Frc consts  --      2.9378                 3.0654                10.5601
 IR Inten    --     12.6188                12.6596               180.0182
 Raman Activ --     11.1283                 6.6029                80.6634

                     10                     11                     12
                      A                      A                      A
 Frequencies --   4171.7004              4378.8941              4417.2533
 Red. masses --      1.0491                 1.0770                 1.0781
 Frc consts  --     10.7567                12.1670                12.3942
 IR Inten    --     18.2469                70.0633                10.3014
 Raman Activ --     56.3769                35.1812                25.5719

 - Thermochemistry -
 -------------------
 Temperature   298.150 Kelvin.  Pressure   1.00000 Atm.
 Atom     1 has atomic number  8 and mass  15.99491

 Molecular mass:    36.02113 amu.
 Principal axes and moments of inertia in atomic units:
                           1         2         3
     Eigenvalues --     8.93057 249.45536 250.04531
           X            0.99924   0.03892  -0.00078
           Y           -0.03876   0.99656   0.07332
           Z            0.00363  -0.07323   0.99731
 This molecule is an asymmetric top.
 Rotational symmetry number  1.
 Rotational temperatures (Kelvin)      9.69857     0.34721     0.34639
 Rotational constants (GHZ):         202.08574     7.23473     7.21766
 Zero-point vibrational energy     141055.6 (Joules/Mol)
                                   33.71309 (Kcal/Mol)
 Warning -- explicit consideration of   5 degrees of freedom as
           vibrations may cause significant error
 Vibrational temperatures:    160.69   349.58   404.27   416.70   678.28
          (Kelvin)           1056.87  3089.90  3166.96  5949.07  6002.14
                             6300.24  6355.43

 Zero-point correction=                           0.053725 (Hartree/Particle)
 Thermal correction to Energy=                    0.058991
 Thermal correction to Enthalpy=                  0.059935
 Thermal correction to Gibbs Free Energy=         0.028267
 Sum of electronic and zero-point Energies=           -149.887519
 Sum of electronic and thermal Energies=              -149.882254
 Sum of electronic and thermal Enthalpies=            -149.881309
 Sum of electronic and thermal Free Energies=         -149.912977

                     E (Thermal)             CV                S
                      KCal/Mol        Cal/Mol-Kelvin    Cal/Mol-Kelvin
 Total                   37.017             15.168             66.650
 Electronic               0.000              0.000              0.000
 Translational            0.889              2.981             36.674
 Rotational               0.889              2.981             20.949
 Vibrational             35.240              9.206              9.027
 Vibration     1          0.607              1.940              3.239
 Vibration     2          0.659              1.774              1.781
 Vibration     3          0.681              1.709              1.528
 Vibration     4          0.686              1.693              1.476
 Vibration     5          0.828              1.313              0.734

 Normal termination of Gaussian 09 at Wed Feb 19 03:13:43 2025.
