 Gaussian 09, Revision D.01,
 Gaussian 09:  AM64L-G09RevD.01 24-Apr-2013

 --------------------------------------
 # opt freq hf/sto-3g geom=connectivity
 --------------------------------------

 -------------------
 Title Card Required
 -------------------
 Symbolic Z-matrix:
 Charge =  0 Multiplicity = 1

 SCF Done:  E(RHF) =  -788.618537463     A.U. after    9 cycles
 SCF Done:  E(RHF) =  -788.621870798     A.U. after    9 cycles
 SCF Done:  E(RHF) =  -788.623970869     A.U. after    9 cycles
 SCF Done:  E(RHF) =  -788.624205046     A.U. after    8 cycles
 SCF Done:  E(RHF) =  -788.624245091     A.U. after    8 cycles
 SCF Done:  E(RHF) =  -788.624276306     A.U. after    8 cycles
 SCF Done:  E(RHF) =  -788.624282658     A.U. after    8 cycles
 SCF Done:  E(RHF) =  -788.624284742     A.U. after    8 cycles
 SCF Done:  E(RHF) =  -788.624287601     A.U. after    8 cycles
 SCF Done:  E(RHF) =  -788.624297157     A.U. after    9 cycles
 SCF Done:  E(RHF) =  -788.624300879     A.U. after    8 cycles
 SCF Done:  E(RHF) =  -788.624301081     A.U. after    7 cycles
 SCF Done:  E(RHF) =  -788.624301193     A.U. after    7 cycles
 SCF Done:  E(RHF) =  -788.624301253     A.U. after    7 cycles
 SCF Done:  E(RHF) =  -788.624301370     A.U. after    7 cycles
 SCF Done:  E(RHF) =  -788.624301606     A.U. after    7 cycles
 SCF Done:  E(RHF) =  -788.624301874     A.U. after    7 cycles
 SCF Done:  E(RHF) =  -788.624302024     A.U. after    7 cycles
 SCF Done:  E(RHF) =  -788.624302055     A.U. after    7 cycles
 Optimization completed.
    -- Stationary point found.
 Normal termination of Gaussian 09 at Wed Feb 19 03:09:12 2025.

 ---------------------------------------------------------------
 #N Geom=AllCheck Guess=TCheck SCRF=Check GenChk RHF/STO-3G Freq
 ---------------------------------------------------------------

 Structure from the checkpoint file:  "h2s_dimer.chk"
 -------------------
 Title Card Required
 -------------------
 Charge =  0 Multiplicity = 1

                         Standard orientation:
 ---------------------------------------------------------------------
 Center     Atomic      Atomic             Coordinates (Angstroms)
 Number     Number       Type             X           Y           Z
 ---------------------------------------------------------------------
      1         16           0        1.993002    0.104433    0.000011
      2          1           0        2.321460   -0.752510    0.960730
      3          1           0        2.322046   -0.752151   -0.960815
      4         16           0       -2.099262   -0.083648   -0.000028
      5          1           0       -2.173438    1.242501    0.000190
      6          1           0       -0.769907   -0.070411    0.000172
 ---------------------------------------------------------------------

 SCF Done:  E(RHF) =  -788.624302055     A.U. after    1 cycles

 The electronic state is 1-A.
 Alpha  occ. eigenvalues --  -90.75486 -90.73296  -8.65717  -8.63643  -6.28969
 Alpha  occ. eigenvalues --   -6.28754  -6.28410  -6.26898  -6.26680  -6.26334
 Alpha  occ. eigenvalues --   -0.90681  -0.88923  -0.51486  -0.50016  -0.40460
 Alpha  occ. eigenvalues --   -0.38528  -0.28473  -0.26988
 Alpha virt. eigenvalues --    0.46566   0.48441   0.53578   0.55588

 Mulliken charges:
               1
     1  S    0.072339
     2  H   -0.031891
     3  H   -0.031890
     4  S    0.055061
     5  H   -0.038128
     6  H   -0.025491
 Sum of Mulliken charges =   0.00000

 Dipole moment (field-independent basis, Debye):
    X=              1.2966    Y=             -0.2412    Z=              0.0002  Tot=              1.3188
 Quadrupole moment (field-independent basis, Debye-Ang):
   XX=            -26.3058   YY=            -24.0294   ZZ=            -24.5697
   XY=             -4.2449   XZ=             -0.0011   YZ=             -0.0001

  Exact polarizability:  10.955  -3.700  14.104  -0.002   0.000  10.250
 Approx polarizability:   9.329  -2.806  13.231  -0.002   0.000   8.533

                      1                      2                      3
                      A                      A                      A
 Frequencies --     33.9889                56.0980                84.8707
 Red. masses --      1.0318                 5.6892                 1.1084
 Frc consts  --      0.0007                 0.0105                 0.0047
 IR Inten    --     21.8500                 0.1990                30.1202
 Raman Activ --     15.3300                 0.2790                 3.7816

                      4                      5                      6
                      A                      A                      A
 Frequencies --     95.2582               137.5026               200.4434
 Red. masses --      1.0232                 1.1056                 1.0261
 Frc consts  --      0.0055                 0.0123                 0.0243
 IR Inten    --      1.0762                13.3690                17.7961
 Raman Activ --     30.5184                 8.9149                 2.5980

                      7                      8                      9
                      A                      A                      A
 Frequencies --   1605.9996              1610.1739              3272.3348
 Red. masses --      1.0386                 1.0383                 1.0367
 Frc consts  --      1.5784                 1.5860                 6.5403
 IR Inten    --     22.7984                18.6276                 7.4417
 Raman Activ --     25.0759                21.6547               128.4945

                     10                     11                     12
                      A                      A                      A
 Frequencies --   3276.6422              3318.3010              3324.0023
 Red. masses --      1.0366                 1.0400                 1.0400
 Frc consts  --      6.5573                 6.7468                 6.7700
 IR Inten    --     18.3562                 6.7032                 8.2133
 Raman Activ --     62.9310                69.9207                53.1276

 - Thermochemistry -
 -------------------
 Temperature   298.150 Kelvin.  Pressure   1.00000 Atm.
 Atom     1 has atomic number 16 and mass  31.97207

 Molecular mass:    67.97544 amu.
 Principal axes and moments of inertia in atomic units:
                           1         2         3
     Eigenvalues --    17.859561021.564071026.13489
           X            0.99977  -0.02167   0.00000
           Y            0.02167   0.99977  -0.00002
           Z            0.00000   0.00002   1.00000
 This molecule is an asymmetric top.
 Rotational symmetry number  1.
 Rotational temperatures (Kelvin)      4.84972     0.08479     0.08441
 Rotational constants (GHZ):         101.05183     1.76665     1.75878
 Zero-point vibrational energy     101776.0 (Joules/Mol)
                                   24.32504 (Kcal/Mol)
 Warning -- explicit consideration of   6 degrees of freedom as
           vibrations may cause significant error
 Vibrational temperatures:     48.90    80.71   122.11   137.06   197.84
          (Kelvin)            288.39  2310.67  2316.68  4708.15  4714.35
                             4774.29  4782.49

 Zero-point correction=                           0.038764 (Hartree/Particle)
 Thermal correction to Energy=                    0.046027
 Thermal correction to Enthalpy=                  0.046972
 Thermal correction to Gibbs Free Energy=         0.006354
 Sum of electronic and zero-point Energies=           -788.585538
 Sum of electronic and thermal Energies=              -788.578275
 Sum of electronic and thermal Enthalpies=            -788.577331
 Sum of electronic and thermal Free Energies=         -788.617948

                     E (Thermal)             CV                S
                      KCal/Mol        Cal/Mol-Kelvin    Cal/Mol-Kelvin
 Total                   28.883             17.689             85.486
 Electronic               0.000              0.000              0.000
 Translational            0.889              2.981             38.567
 Rotational               0.889              2.981             24.441
 Vibrational             27.105             11.728             22.478
 Vibration     1          0.594              1.983              5.582
 Vibration     2          0.596              1.975              4.590
 Vibration     3          0.601              1.960              3.775
 Vibration     4          0.603              1.953              3.549
 Vibration     5          0.614              1.916              2.838
 Vibration     6          0.638              1.839              2.129

 Optimization completed.
    -- Stationary point found.
 Normal termination of Gaussian 09 at Wed Feb 19 03:09:13 2025.
