 Gaussian 09, Revision D.01,
 Gaussian 09:  AM64L-G09RevD.01 24-Apr-2013

 --------------------------------------
 # opt freq hf/sto-3g geom=connectivity
 --------------------------------------

 -------------------
 Title Card Required
 -------------------
 Symbolic Z-matrix:
 Charge =  0 Multiplicity = 1

 SCF Done:  E(RHF) =  -394.298794569     A.U. after    7 cycles
 SCF Done:  E(RHF) =  -394.311625299     A.U. after    7 cycles
 SCF Done:  E(RHF) =  -394.311629288     A.U. after    6 cycles
 SCF Done:  E(RHF) =  -394.311630060     A.U. after    5 cycles
 Optimization completed.
    -- Stationary point found.
 Normal termination of Gaussian 09 at Wed Feb 19 03:02:09 2025.

 ---------------------------------------------------------------
 #N Geom=AllCheck Guess=TCheck SCRF=Check GenChk RHF/STO-3G Freq
 ---------------------------------------------------------------

 Structure from the checkpoint file:  "h2s_monomer.chk"
 -------------------
 Title Card Required
 -------------------
 Charge =  0 Multiplicity = 1

                         Standard orientation:
 ---------------------------------------------------------------------
 Center     Atomic      Atomic             Coordinates (Angstroms)
 Number     Number       Type             X           Y           Z
 ---------------------------------------------------------------------
      1         16           0        0.000000    0.000000    0.102066
      2          1           0        0.000000    0.959955   -0.816530
      3          1           0        0.000000   -0.959955   -0.816530
 ---------------------------------------------------------------------

 SCF Done:  E(RHF) =  -394.311630060     A.U. after    1 cycles

 The electronic state is 1-A1.
 Alpha  occ. eigenvalues --  -90.74542  -8.64793  -6.28045  -6.27828  -6.27478
 Alpha  occ. eigenvalues --   -0.89817  -0.50720  -0.39455  -0.27807
 Alpha virt. eigenvalues --    0.47305   0.54345

 Mulliken charges:
               1
     1  S    0.072032
     2  H   -0.036016
     3  H   -0.036016
 Sum of Mulliken charges =   0.00000

 Dipole moment (field-independent basis, Debye):
    X=              0.0000    Y=              0.0000    Z=             -1.0266  Tot=              1.0266
 Quadrupole moment (field-independent basis, Debye-Ang):
   XX=            -13.2025   YY=            -11.3966   ZZ=            -12.0895
   XY=              0.0000   XZ=              0.0000   YZ=              0.0000

  Exact polarizability:   0.637   0.000   9.648   0.000   0.000   6.852
 Approx polarizability:   0.383   0.000   8.156   0.000   0.000   6.696

                      1                      2                      3
                     A1                     A1                     B2
 Frequencies --   1609.7430              3274.6492              3322.6203
 Red. masses --      1.0386                 1.0367                 1.0399
 Frc consts  --      1.5856                 6.5497                 6.7641
 IR Inten    --     23.0688                17.2300                10.4685
 Raman Activ --     23.8708                76.9117                51.9459

 - Thermochemistry -
 -------------------
 Temperature   298.150 Kelvin.  Pressure   1.00000 Atm.
 Atom     1 has atomic number 16 and mass  31.97207

 Molecular mass:    33.98772 amu.
 Principal axes and moments of inertia in atomic units:
                           1         2         3
     Eigenvalues --     5.71361   6.63307  12.34668
           X            0.00000   0.00000   1.00000
           Y            1.00000   0.00000   0.00000
           Z            0.00000   1.00000   0.00000
 This molecule is an asymmetric top.
 Rotational symmetry number  2.
 Rotational temperatures (Kelvin)     15.15921    13.05788     7.01515
 Rotational constants (GHZ):         315.86705   272.08230   146.17217
 Zero-point vibrational energy      49088.8 (Joules/Mol)
                                   11.73251 (Kcal/Mol)
 Vibrational temperatures:   2316.06  4711.48  4780.50
          (Kelvin)

 Zero-point correction=                           0.018697 (Hartree/Particle)
 Thermal correction to Energy=                    0.021533
 Thermal correction to Enthalpy=                  0.022477
 Thermal correction to Gibbs Free Energy=        -0.000825
 Sum of electronic and zero-point Energies=           -394.292933
 Sum of electronic and thermal Energies=              -394.290097
 Sum of electronic and thermal Enthalpies=            -394.289153
 Sum of electronic and thermal Free Energies=         -394.312455

                     E (Thermal)             CV                S
                      KCal/Mol        Cal/Mol-Kelvin    Cal/Mol-Kelvin
 Total                   13.512              6.013             49.043
 Electronic               0.000              0.000              0.000
 Translational            0.889              2.981             36.501
 Rotational               0.889              2.981             12.534
 Vibrational             11.734              0.051              0.007

 Optimization completed.
    -- Stationary point found.
 Normal termination of Gaussian 09 at Wed Feb 19 03:02:09 2025.
