 Gaussian 09, Revision D.01,
 Gaussian 09:  AM64L-G09RevD.01 24-Apr-2013

 --------------------------------------
 # opt freq hf/sto-3g geom=connectivity
 --------------------------------------

 -------------------
 Title Card Required
 -------------------
 Symbolic Z-matrix:
 Charge =  0 Multiplicity = 1

 SCF Done:  E(RHF) =  -148.744187808     A.U. after    9 cycles
 SCF Done:  E(RHF) =  -148.763885589     A.U. after    9 cycles
 SCF Done:  E(RHF) =  -148.764182952     A.U. after    8 cycles
 SCF Done:  E(RHF) =  -148.764881484     A.U. after    7 cycles
 SCF Done:  E(RHF) =  -148.764883026     A.U. after    7 cycles
 Optimization completed.
    -- Stationary point found.
 Normal termination of Gaussian 09 at Wed Feb 19 03:54:08 2025.

 ---------------------------------------------------------------
 #N Geom=AllCheck Guess=TCheck SCRF=Check GenChk RHF/STO-3G Freq
 ---------------------------------------------------------------

 Structure from the checkpoint file:  "h2o2.chk"
 -------------------
 Title Card Required
 -------------------
 Charge =  0 Multiplicity = 1

                         Standard orientation:
 ---------------------------------------------------------------------
 Center     Atomic      Atomic             Coordinates (Angstroms)
 Number     Number       Type             X           Y           Z
 ---------------------------------------------------------------------
      1          8           0        0.684695    0.150234   -0.000001
      2          1           0        1.062064   -0.774826    0.000001
      3          8           0       -0.684695   -0.150234   -0.000002
      4          1           0       -1.062064    0.774826    0.000018
 ---------------------------------------------------------------------

 SCF Done:  E(RHF) =  -148.764883026     A.U. after    1 cycles

 The electronic state is 1-A.
 Alpha  occ. eigenvalues --  -20.31390 -20.31311  -1.40499  -1.10357  -0.61044
 Alpha  occ. eigenvalues --   -0.56151  -0.51960  -0.41060  -0.32996
 Alpha virt. eigenvalues --    0.51064   0.59269   0.61462

 Mulliken charges:
               1
     1  O   -0.193660
     2  H    0.193660
     3  O   -0.193660
     4  H    0.193660
 Sum of Mulliken charges =   0.00000

 Dipole moment (field-independent basis, Debye):
    X=              0.0000    Y=              0.0000    Z=              0.0000  Tot=              0.0000
 Quadrupole moment (field-independent basis, Debye-Ang):
   XX=             -9.2148   YY=             -8.8369   ZZ=            -10.7302
   XY=             -2.8668   XZ=              0.0000   YZ=              0.0000

  Exact polarizability:   9.648  -3.503   6.465   0.000   0.000   0.268
 Approx polarizability:   6.923  -1.341   5.812   0.000   0.000   0.115

 ******    1 imaginary frequencies (negative Signs) ******

                      1                      2                      3
                      A                      A                      A
 Frequencies --    -56.6298              1485.5832              1493.6306
 Red. masses --      1.0671                 1.0671                 8.2017
 Frc consts  --      0.0020                 1.3875                10.7805
 IR Inten    --    189.8879                58.6101                 0.0000
 Raman Activ --      0.0000                 0.0000                16.5121

                      4                      5                      6
                      A                      A                      A
 Frequencies --   1885.3482              4169.3446              4189.2442
 Red. masses --      1.2173                 1.0696                 1.0671
 Frc consts  --      2.5493                10.9552                11.0337
 IR Inten    --      0.0000                 0.0000                25.6036
 Raman Activ --     10.5799                99.6472                 0.0000

 - Thermochemistry -
 -------------------
 Temperature   298.150 Kelvin.  Pressure   1.00000 Atm.
 Atom     1 has atomic number  8 and mass  15.99491

 Molecular mass:    34.00548 amu.
 Principal axes and moments of inertia in atomic units:
                           1         2         3
     Eigenvalues --     6.28659  62.28787  68.57446
           X            0.99451  -0.10464   0.00000
           Y            0.10464   0.99451  -0.00001
           Z            0.00000   0.00001   1.00000
 This molecule is an asymmetric top.
 Rotational symmetry number  1.
 Rotational temperatures (Kelvin)     13.77756     1.39054     1.26306
 Rotational constants (GHZ):         287.07808    28.97420    26.31798
    1 imaginary frequencies ignored.
 Zero-point vibrational energy      79092.0 (Joules/Mol)
                                   18.90344 (Kcal/Mol)
 Vibrational temperatures:   2137.42  2149.00  2712.59  5998.75  6027.38
          (Kelvin)

 Zero-point correction=                           0.030125 (Hartree/Particle)
 Thermal correction to Energy=                    0.032968
 Thermal correction to Enthalpy=                  0.033913
 Thermal correction to Gibbs Free Energy=         0.008034
 Sum of electronic and zero-point Energies=           -148.734758
 Sum of electronic and thermal Energies=              -148.731915
 Sum of electronic and thermal Enthalpies=            -148.730971
 Sum of electronic and thermal Free Energies=         -148.756849

                     E (Thermal)             CV                S
                      KCal/Mol        Cal/Mol-Kelvin    Cal/Mol-Kelvin
 Total                   20.688              6.135             54.465
 Electronic               0.000              0.000              0.000
 Translational            0.889              2.981             36.503
 Rotational               0.889              2.981             17.936
 Vibrational             18.910              0.174              0.027

 Optimization completed.
    -- Stationary point found.
 Normal termination of Gaussian 09 at Wed Feb 19 03:54:09 2025.
