 Gaussian 09, Revision D.01,
 Gaussian 09:  AM64L-G09RevD.01 24-Apr-2013

 --------------------------------------
 # opt freq hf/sto-3g geom=connectivity
 --------------------------------------

 -------------------
 Title Card Required
 -------------------
 Symbolic Z-matrix:
 Charge =  0 Multiplicity = 1

 SCF Done:  E(RHF) =  -231.468245974     A.U. after    8 cycles
 SCF Done:  E(RHF) =  -231.482110334     A.U. after    7 cycles
 SCF Done:  E(RHF) =  -231.482667747     A.U. after    7 cycles
 SCF Done:  E(RHF) =  -231.482671061     A.U. after    5 cycles
 SCF Done:  E(RHF) =  -231.482671629     A.U. after    5 cycles
 Optimization completed.
    -- Stationary point found.
 Normal termination of Gaussian 09 at Wed Feb 19 02:28:22 2025.

 ---------------------------------------------------------------
 #N Geom=AllCheck Guess=TCheck SCRF=Check GenChk RHF/STO-3G Freq
 ---------------------------------------------------------------

 Structure from the checkpoint file:  "cyclohexane_chair.chk"
 -------------------
 Title Card Required
 -------------------
 Charge =  0 Multiplicity = 1

                         Standard orientation:
 ---------------------------------------------------------------------
 Center     Atomic      Atomic             Coordinates (Angstroms)
 Number     Number       Type             X           Y           Z
 ---------------------------------------------------------------------
      1          6           0       -0.820906    1.220918   -0.234078
      2          6           0       -1.467800   -0.100468    0.234090
      3          6           0       -0.646893   -1.321378   -0.234097
      4          6           0        0.820900   -1.220918    0.234095
      5          6           0        1.467801    0.100460   -0.234085
      6          6           0        0.646897    1.321382    0.234076
      7          1           0       -1.094419   -2.235523    0.150646
      8          1           0       -1.530576   -0.104774    1.320671
      9          1           0       -2.483225   -0.169969   -0.150682
     10          1           0       -0.856032    1.273144   -1.320660
     11          1           0       -1.388800    2.065549    0.150708
     12          1           0        0.855990   -1.273116    1.320677
     13          1           0        1.388805   -2.065559   -0.150656
     14          1           0        2.483222    0.169963    0.150697
     15          1           0        1.530590    0.104748   -1.320665
     16          1           0        0.674577    1.377912    1.320657
     17          1           0        1.094413    2.235511   -0.150715
     18          1           0       -0.674543   -1.377861   -1.320680
 ---------------------------------------------------------------------

 SCF Done:  E(RHF) =  -231.482671629     A.U. after    1 cycles

 The electronic state is 1-A.
 Alpha  occ. eigenvalues --  -11.03491 -11.03485 -11.03485 -11.03455 -11.03455
 Alpha  occ. eigenvalues --  -11.03428  -1.06645  -0.95873  -0.95873  -0.79234
 Alpha  occ. eigenvalues --   -0.79234  -0.71954  -0.61175  -0.57701  -0.56652
 Alpha  occ. eigenvalues --   -0.56652  -0.48811  -0.48811  -0.46873  -0.44970
 Alpha  occ. eigenvalues --   -0.44970  -0.41581  -0.38403  -0.38403
 Alpha virt. eigenvalues --    0.58559   0.60705   0.60705   0.64139   0.65531
 Alpha virt. eigenvalues --    0.65531   0.70423   0.70424   0.73725   0.75245
 Alpha virt. eigenvalues --    0.75245   0.77517   0.80534   0.80534   0.80576

 Mulliken charges:
               1
     1  C   -0.100808
     2  C   -0.100808
     3  C   -0.100808
     4  C   -0.100808
     5  C   -0.100808
     6  C   -0.100808
     7  H    0.051648
     8  H    0.049160
     9  H    0.051648
    10  H    0.049160
    11  H    0.051648
    12  H    0.049160
    13  H    0.051648
    14  H    0.051648
    15  H    0.049160
    16  H    0.049160
    17  H    0.051648
    18  H    0.049160
 Sum of Mulliken charges =   0.00000

 Dipole moment (field-independent basis, Debye):
    X=              0.0000    Y=              0.0000    Z=              0.0000  Tot=              0.0000
 Quadrupole moment (field-independent basis, Debye-Ang):
   XX=            -38.2700   YY=            -38.2700   ZZ=            -37.4936
   XY=              0.0000   XZ=              0.0000   YZ=              0.0000

  Exact polarizability:  32.691   0.000  32.691   0.000   0.000  29.509
 Approx polarizability:  24.438   0.000  24.438   0.000   0.000  26.290

                      1                      2                      3
                      A                      A                      A
 Frequencies --    246.4264               246.4280               392.1820
 Red. masses --      1.7847                 1.7847                 1.5774
 Frc consts  --      0.0639                 0.0639                 0.1429
 IR Inten    --      0.0351                 0.0351                 0.0000
 Raman Activ --      0.0000                 0.0000                 0.2105

                      4                      5                      6
                      A                      A                      A
 Frequencies --    489.8384               489.8407               599.2091
 Red. masses --      3.0044                 3.0044                 1.3522
 Frc consts  --      0.4247                 0.4247                 0.2861
 IR Inten    --      0.0000                 0.0000                 1.2418
 Raman Activ --      0.6842                 0.6842                 0.0000

                      7                      8                      9
                      A                      A                      A
 Frequencies --    946.4804               946.4806               947.8198
 Red. masses --      1.4134                 1.4134                 3.2801
 Frc consts  --      0.7460                 0.7460                 1.7362
 IR Inten    --      0.0000                 0.0000                 0.0000
 Raman Activ --      1.8503                 1.8503                17.9617

                     10                     11                     12
                      A                      A                      A
 Frequencies --   1036.8312              1036.8321              1091.4195
 Red. masses --      2.0753                 2.0753                 1.3203
 Frc consts  --      1.3144                 1.3144                 0.9266
 IR Inten    --      0.9614                 0.9613                 1.4024
 Raman Activ --      0.0000                 0.0000                 0.0000

                     13                     14                     15
                      A                      A                      A
 Frequencies --   1091.4197              1205.4607              1231.2490
 Red. masses --      1.3203                 2.4051                 1.5483
 Frc consts  --      0.9266                 2.0591                 1.3829
 IR Inten    --      1.4025                 2.1232                 0.0000
 Raman Activ --      0.0000                 0.0000                16.5713

                     16                     17                     18
                      A                      A                      A
 Frequencies --   1231.2515              1280.6101              1305.4060
 Red. masses --      1.5483                 1.0104                 1.3367
 Frc consts  --      1.3829                 0.9763                 1.3421
 IR Inten    --      0.0000                 0.0000                 0.0000
 Raman Activ --     16.5711                 0.0000                 0.0000

                     19                     20                     21
                      A                      A                      A
 Frequencies --   1379.1364              1413.2401              1518.4994
 Red. masses --      1.3604                 2.1223                 1.2732
 Frc consts  --      1.5245                 2.4974                 1.7297
 IR Inten    --      0.0000                 0.0000                 3.1778
 Raman Activ --      0.0000                 4.2810                 0.0000

                     22                     23                     24
                      A                      A                      A
 Frequencies --   1518.5015              1525.9916              1525.9931
 Red. masses --      1.2732                 1.1576                 1.1576
 Frc consts  --      1.7297                 1.5882                 1.5882
 IR Inten    --      3.1776                 0.0000                 0.0000
 Raman Activ --      0.0000                37.3504                37.3505

                     25                     26                     27
                      A                      A                      A
 Frequencies --   1613.7304              1678.3549              1678.3556
 Red. masses --      1.3014                 1.4634                 1.4634
 Frc consts  --      1.9968                 2.4287                 2.4287
 IR Inten    --      0.0000                12.3011                12.3014
 Raman Activ --      0.0000                 0.0000                 0.0000

                     28                     29                     30
                      A                      A                      A
 Frequencies --   1702.0997              1705.3291              1705.3306
 Red. masses --      1.7104                 1.8775                 1.8775
 Frc consts  --      2.9196                 3.2170                 3.2170
 IR Inten    --      0.0000                 0.0000                 0.0000
 Raman Activ --      0.0000                 2.3559                 2.3560

                     31                     32                     33
                      A                      A                      A
 Frequencies --   1823.2250              1823.2265              1824.6596
 Red. masses --      1.0913                 1.0913                 1.0807
 Frc consts  --      2.1374                 2.1374                 2.1199
 IR Inten    --      0.0000                 0.0000                 1.2616
 Raman Activ --     36.4242                36.4239                 0.0000

                     34                     35                     36
                      A                      A                      A
 Frequencies --   1837.5191              1837.5204              1850.1077
 Red. masses --      1.1298                 1.1298                 1.1186
 Frc consts  --      2.2475                 2.2475                 2.2559
 IR Inten    --      0.0256                 0.0256                 0.0000
 Raman Activ --      0.0000                 0.0000                 3.4653

                     37                     38                     39
                      A                      A                      A
 Frequencies --   3602.3824              3603.0042              3603.0049
 Red. masses --      1.0639                 1.0645                 1.0645
 Frc consts  --      8.1345                 8.1421                 8.1421
 IR Inten    --      8.5841                 0.0000                 0.0000
 Raman Activ --      0.0001                34.0334                34.0343

                     40                     41                     42
                      A                      A                      A
 Frequencies --   3606.2721              3606.2730              3609.8128
 Red. masses --      1.0687                 1.0687                 1.0720
 Frc consts  --      8.1885                 8.1885                 8.2301
 IR Inten    --     10.0052                10.0055                 0.0000
 Raman Activ --      0.0000                 0.0000               180.7089

                     43                     44                     45
                      A                      A                      A
 Frequencies --   3717.3936              3717.9139              3717.9141
 Red. masses --      1.1126                 1.1109                 1.1109
 Frc consts  --      9.0590                 9.0478                 9.0478
 IR Inten    --      0.0000                 4.0853                 4.0855
 Raman Activ --    113.6692                 0.0001                 0.0005

                     46                     47                     48
                      A                      A                      A
 Frequencies --   3723.7436              3723.7437              3729.7204
 Red. masses --      1.1096                 1.1096                 1.1099
 Frc consts  --      9.0654                 9.0654                 9.0970
 IR Inten    --      0.0000                 0.0000                16.4535
 Raman Activ --     47.1382                47.1382                 0.0000

 - Thermochemistry -
 -------------------
 Temperature   298.150 Kelvin.  Pressure   1.00000 Atm.
 Atom     1 has atomic number  6 and mass  12.00000

 Molecular mass:    84.09390 amu.
 Principal axes and moments of inertia in atomic units:
                           1         2         3
     Eigenvalues --   422.81268 422.81414 741.14076
           X            0.99999   0.00501   0.00000
           Y           -0.00501   0.99999   0.00000
           Z            0.00000   0.00000   1.00000
 This molecule is an asymmetric top.
 Rotational symmetry number  1.
 Rotational temperatures (Kelvin)      0.20485     0.20485     0.11687
 Rotational constants (GHZ):           4.26842     4.26840     2.43509
 Zero-point vibrational energy     536747.6 (Joules/Mol)
                                  128.28575 (Kcal/Mol)
 Warning -- explicit consideration of   6 degrees of freedom as
           vibrations may cause significant error
 Vibrational temperatures:    354.55   354.55   564.26   704.77   704.77
          (Kelvin)            862.13  1361.77  1361.77  1363.70  1491.77
                             1491.77  1570.31  1570.31  1734.39  1771.49
                             1771.49  1842.51  1878.19  1984.27  2033.33
                             2184.78  2184.78  2195.56  2195.56  2321.80
                             2414.78  2414.78  2448.94  2453.59  2453.59
                             2623.21  2623.21  2625.27  2643.78  2643.78
                             2661.89  5183.02  5183.91  5183.91  5188.61
                             5188.62  5193.71  5348.49  5349.24  5349.24
                             5357.63  5357.63  5366.23

 Zero-point correction=                           0.204436 (Hartree/Particle)
 Thermal correction to Energy=                    0.209567
 Thermal correction to Enthalpy=                  0.210511
 Thermal correction to Gibbs Free Energy=         0.175900
 Sum of electronic and zero-point Energies=           -231.278235
 Sum of electronic and thermal Energies=              -231.273105
 Sum of electronic and thermal Enthalpies=            -231.272160
 Sum of electronic and thermal Free Energies=         -231.306772

                     E (Thermal)             CV                S
                      KCal/Mol        Cal/Mol-Kelvin    Cal/Mol-Kelvin
 Total                  131.505             18.873             72.846
 Electronic               0.000              0.000              0.000
 Translational            0.889              2.981             39.202
 Rotational               0.889              2.981             26.385
 Vibrational            129.728             12.911              7.259
 Vibration     1          0.661              1.769              1.756
 Vibration     2          0.661              1.769              1.756
 Vibration     3          0.760              1.487              0.992
 Vibration     4          0.846              1.273              0.684
 Vibration     5          0.846              1.273              0.684
 Vibration     6          0.957              1.033              0.451

 Optimization completed.
    -- Stationary point found.
 Normal termination of Gaussian 09 at Wed Feb 19 02:28:24 2025.
