 Gaussian 09, Revision D.01,
 Gaussian 09:  AM64L-G09RevD.01 24-Apr-2013

 --------------------------------------
 # opt freq hf/sto-3g geom=connectivity
 --------------------------------------

 -------------------
 Title Card Required
 -------------------
 Symbolic Z-matrix:
 Charge =  0 Multiplicity = 1

 SCF Done:  E(RHF) =  -231.457028529     A.U. after    8 cycles
 SCF Done:  E(RHF) =  -231.472578380     A.U. after    8 cycles
 SCF Done:  E(RHF) =  -231.472963778     A.U. after    7 cycles
 SCF Done:  E(RHF) =  -231.472972227     A.U. after    7 cycles
 SCF Done:  E(RHF) =  -231.472974251     A.U. after    6 cycles
 Optimization completed.
    -- Stationary point found.
 Normal termination of Gaussian 09 at Wed Feb 19 02:31:39 2025.

 ---------------------------------------------------------------
 #N Geom=AllCheck Guess=TCheck SCRF=Check GenChk RHF/STO-3G Freq
 ---------------------------------------------------------------

 Structure from the checkpoint file:  "cyclohexane_boat.chk"
 -------------------
 Title Card Required
 -------------------
 Charge =  0 Multiplicity = 1

                         Standard orientation:
 ---------------------------------------------------------------------
 Center     Atomic      Atomic             Coordinates (Angstroms)
 Number     Number       Type             X           Y           Z
 ---------------------------------------------------------------------
      1          6           0       -0.669798    1.230151    0.381282
      2          6           0       -1.534886    0.000458   -0.000302
      3          6           0       -0.670427   -1.229743   -0.381526
      4          6           0        0.669385   -1.229961    0.381990
      5          6           0        1.534886   -0.000970   -0.000588
      6          6           0        0.670841    1.229930   -0.380819
      7          1           0       -1.220190   -2.144247   -0.170789
      8          1           0       -2.182036   -0.251655    0.836777
      9          1           0       -2.181859    0.252905   -0.837419
     10          1           0        0.468549    1.219253   -1.449592
     11          1           0       -0.467572    1.218174    1.450050
     12          1           0        0.466046   -1.216437    1.450528
     13          1           0        1.218353   -2.145159    0.172186
     14          1           0        2.180272   -0.254039   -0.838740
     15          1           0        2.183622    0.250518    0.835453
     16          1           0        1.220549    2.144057   -0.168315
     17          1           0       -1.218710    2.144973    0.169707
     18          1           0       -0.467033   -1.217530   -1.450070
 ---------------------------------------------------------------------

 SCF Done:  E(RHF) =  -231.472974251     A.U. after    1 cycles

 The electronic state is 1-A.
 Alpha  occ. eigenvalues --  -11.03428 -11.03417 -11.03403 -11.03395 -11.03359
 Alpha  occ. eigenvalues --  -11.03345  -1.06494  -0.95581  -0.95533  -0.80362
 Alpha  occ. eigenvalues --   -0.79395  -0.69245  -0.62360  -0.61108  -0.56543
 Alpha  occ. eigenvalues --   -0.52799  -0.48576  -0.47460  -0.46770  -0.46543
 Alpha  occ. eigenvalues --   -0.46147  -0.39663  -0.38847  -0.38419
 Alpha virt. eigenvalues --    0.57750   0.59656   0.60708   0.63808   0.65318
 Alpha virt. eigenvalues --    0.65969   0.67249   0.67429   0.73161   0.76116
 Alpha virt. eigenvalues --    0.76331   0.78462   0.78649   0.79477   0.80730

 Mulliken charges:
               1
     1  C   -0.101465
     2  C   -0.102198
     3  C   -0.101461
     4  C   -0.101449
     5  C   -0.102198
     6  C   -0.101476
     7  H    0.052062
     8  H    0.050858
     9  H    0.050855
    10  H    0.049641
    11  H    0.049642
    12  H    0.049641
    13  H    0.052062
    14  H    0.050856
    15  H    0.050857
    16  H    0.052067
    17  H    0.052066
    18  H    0.049641
 Sum of Mulliken charges =   0.00000

 Dipole moment (field-independent basis, Debye):
    X=              0.0000    Y=              0.0002    Z=              0.0000  Tot=              0.0002
 Quadrupole moment (field-independent basis, Debye-Ang):
   XX=            -38.2654   YY=            -38.1192   ZZ=            -37.5221
   XY=             -0.0001   XZ=              0.0001   YZ=              0.0000

  Exact polarizability:  32.258  -0.001  32.642   0.002   0.000  29.400
 Approx polarizability:  24.055  -0.001  24.583   0.001   0.000  25.805

                      1                      2                      3
                      A                      A                      A
 Frequencies --    109.6798               252.3239               291.6345
 Red. masses --      1.7286                 1.5350                 1.8465
 Frc consts  --      0.0123                 0.0576                 0.0925
 IR Inten    --      0.0007                 0.0272                 0.0000
 Raman Activ --      0.0492                 0.0243                 0.0953

                      4                      5                      6
                      A                      A                      A
 Frequencies --    485.6559               538.7601               657.5498
 Red. masses --      2.3519                 4.4068                 1.6285
 Frc consts  --      0.3268                 0.7536                 0.4148
 IR Inten    --      0.4769                 0.0000                 0.5136
 Raman Activ --      0.4903                 1.4109                 0.3109

                      7                      8                      9
                      A                      A                      A
 Frequencies --    896.4043               914.5157               950.1071
 Red. masses --      1.1547                 1.3724                 3.0971
 Frc consts  --      0.5467                 0.6762                 1.6472
 IR Inten    --      1.0245                 1.9748                 0.0000
 Raman Activ --      0.1123                 1.6529                17.5835

                     10                     11                     12
                      A                      A                      A
 Frequencies --   1041.4880              1042.8067              1089.6976
 Red. masses --      2.1566                 2.3475                 1.3778
 Frc consts  --      1.3783                 1.5040                 0.9640
 IR Inten    --      0.6714                 0.2772                 0.0010
 Raman Activ --      1.2028                 0.5016                 1.8873

                     13                     14                     15
                      A                      A                      A
 Frequencies --   1117.7409              1182.1660              1232.8632
 Red. masses --      1.3787                 2.2010                 1.5860
 Frc consts  --      1.0149                 1.8123                 1.4203
 IR Inten    --      0.0000                 0.8893                 0.0000
 Raman Activ --      2.0179                 2.2365                10.2025

                     16                     17                     18
                      A                      A                      A
 Frequencies --   1261.8847              1317.1580              1333.6182
 Red. masses --      1.5767                 1.0216                 1.4427
 Frc consts  --      1.4792                 1.0442                 1.5118
 IR Inten    --      0.0497                 0.0459                 0.0419
 Raman Activ --     13.6124                 0.0106                 4.4179

                     19                     20                     21
                      A                      A                      A
 Frequencies --   1392.5396              1417.3135              1498.7047
 Red. masses --      1.8619                 1.5700                 1.2781
 Frc consts  --      2.1273                 1.8582                 1.6915
 IR Inten    --      1.2634                 1.2714                 0.7729
 Raman Activ --      2.4425                 6.3981                 0.9022

                     22                     23                     24
                      A                      A                      A
 Frequencies --   1513.4802              1527.3142              1546.6221
 Red. masses --      1.1429                 1.2560                 1.0841
 Frc consts  --      1.5424                 1.7262                 1.5279
 IR Inten    --      0.0000                 0.0000                 1.4969
 Raman Activ --     19.7662                 8.0005                25.9938

                     25                     26                     27
                      A                      A                      A
 Frequencies --   1610.0629              1676.7059              1676.8554
 Red. masses --      1.3207                 1.4433                 1.5454
 Frc consts  --      2.0172                 2.3906                 2.5602
 IR Inten    --      0.2130                13.7814                 1.5059
 Raman Activ --      0.3247                 0.0888                 7.6015

                     28                     29                     30
                      A                      A                      A
 Frequencies --   1678.0513              1682.4328              1709.4694
 Red. masses --      1.8883                 1.5479                 1.7952
 Frc consts  --      3.1329                 2.5814                 3.0909
 IR Inten    --      0.2005                10.0188                 0.0000
 Raman Activ --      2.4398                 0.7853                 0.0665

                     31                     32                     33
                      A                      A                      A
 Frequencies --   1824.3049              1828.8446              1836.7067
 Red. masses --      1.0801                 1.0857                 1.0892
 Frc consts  --      2.1179                 2.1396                 2.1650
 IR Inten    --      0.0083                 0.0000                 0.5040
 Raman Activ --     20.8111                28.9116                 2.3820

                     34                     35                     36
                      A                      A                      A
 Frequencies --   1841.2373              1844.2234              1857.3915
 Red. masses --      1.1181                 1.1223                 1.1165
 Frc consts  --      2.2334                 2.2490                 2.2694
 IR Inten    --      0.0880                 0.0076                 0.0000
 Raman Activ --      7.5805                14.7338                 3.1121

                     37                     38                     39
                      A                      A                      A
 Frequencies --   3605.2076              3606.7137              3608.5174
 Red. masses --      1.0644                 1.0654                 1.0647
 Frc consts  --      8.1514                 8.1654                 8.1686
 IR Inten    --      1.4923                 0.0003                 7.9100
 Raman Activ --      2.1173                24.3651                33.5607

                     40                     41                     42
                      A                      A                      A
 Frequencies --   3609.7884              3611.9609              3616.0178
 Red. masses --      1.0689                 1.0684                 1.0720
 Frc consts  --      8.2062                 8.2122                 8.2583
 IR Inten    --      8.7947                 9.9507                 0.0000
 Raman Activ --      4.1787                 2.3660               169.8302

                     43                     44                     45
                      A                      A                      A
 Frequencies --   3718.3483              3720.8065              3723.2363
 Red. masses --      1.1129                 1.1120                 1.1113
 Frc consts  --      9.0660                 9.0703                 9.0768
 IR Inten    --      2.1745                 0.1869                 0.0000
 Raman Activ --     21.7074                 2.3491                93.9645

                     46                     47                     48
                      A                      A                      A
 Frequencies --   3726.5635              3727.1267              3733.0113
 Red. masses --      1.1106                 1.1087                 1.1085
 Frc consts  --      9.0867                 9.0741                 9.1013
 IR Inten    --      2.9505                 2.6030                12.9553
 Raman Activ --      4.3814                37.0803                33.6142

 - Thermochemistry -
 -------------------
 Temperature   298.150 Kelvin.  Pressure   1.00000 Atm.
 Atom     1 has atomic number  6 and mass  12.00000

 Molecular mass:    84.09390 amu.
 Principal axes and moments of inertia in atomic units:
                           1         2         3
     Eigenvalues --   413.49576 437.68368 719.75878
           X            1.00000  -0.00007  -0.00001
           Y            0.00007   1.00000   0.00000
           Z            0.00001   0.00000   1.00000
 This molecule is an asymmetric top.
 Rotational symmetry number  1.
 Rotational temperatures (Kelvin)      0.20947     0.19789     0.12034
 Rotational constants (GHZ):           4.36459     4.12339     2.50743
 Zero-point vibrational energy     536439.1 (Joules/Mol)
                                  128.21202 (Kcal/Mol)
 Warning -- explicit consideration of   5 degrees of freedom as
           vibrations may cause significant error
 Vibrational temperatures:    157.80   363.04   419.60   698.75   775.15
          (Kelvin)            946.07  1289.72  1315.78  1366.99  1498.47
                             1500.36  1567.83  1608.18  1700.87  1773.81
                             1815.57  1895.09  1918.78  2003.55  2039.20
                             2156.30  2177.56  2197.46  2225.24  2316.52
                             2412.40  2412.62  2414.34  2420.64  2459.54
                             2624.76  2631.30  2642.61  2649.13  2653.42
                             2672.37  5187.08  5189.25  5191.85  5193.67
                             5196.80  5202.64  5349.87  5353.40  5356.90
                             5361.69  5362.50  5370.96

 Zero-point correction=                           0.204319 (Hartree/Particle)
 Thermal correction to Energy=                    0.209727
 Thermal correction to Enthalpy=                  0.210671
 Thermal correction to Gibbs Free Energy=         0.175223
 Sum of electronic and zero-point Energies=           -231.268655
 Sum of electronic and thermal Energies=              -231.263248
 Sum of electronic and thermal Enthalpies=            -231.262303
 Sum of electronic and thermal Free Energies=         -231.297751

                     E (Thermal)             CV                S
                      KCal/Mol        Cal/Mol-Kelvin    Cal/Mol-Kelvin
 Total                  131.606             19.055             74.606
 Electronic               0.000              0.000              0.000
 Translational            0.889              2.981             39.202
 Rotational               0.889              2.981             26.368
 Vibrational            129.828             13.094              9.036
 Vibration     1          0.606              1.941              3.275
 Vibration     2          0.664              1.759              1.714
 Vibration     3          0.687              1.689              1.464
 Vibration     4          0.842              1.282              0.695
 Vibration     5          0.894              1.164              0.568

 Normal termination of Gaussian 09 at Wed Feb 19 02:31:41 2025.
