 Gaussian 09, Revision D.01,
 Gaussian 09:  AM64L-G09RevD.01 24-Apr-2013

 --------------------------------------
 # opt freq hf/sto-3g geom=connectivity
 --------------------------------------

 -------------------
 Title Card Required
 -------------------
 Symbolic Z-matrix:
 Charge =  0 Multiplicity = 1

 SCF Done:  E(RHF) =  -150.943022807     A.U. after   11 cycles
 SCF Done:  E(RHF) =  -150.944100015     A.U. after   12 cycles
 SCF Done:  E(RHF) =  -150.944204587     A.U. after   11 cycles
 SCF Done:  E(RHF) =  -150.943494233     A.U. after   11 cycles
 SCF Done:  E(RHF) =  -150.944207636     A.U. after    9 cycles
 Optimization completed.
    -- Stationary point found.
 Normal termination of Gaussian 09 at Wed Feb 19 02:21:05 2025.

 ---------------------------------------------------------------
 #N Geom=AllCheck Guess=TCheck SCRF=Check GenChk RHF/STO-3G Freq
 ---------------------------------------------------------------

 Structure from the checkpoint file:  "acetaldehyde.chk"
 -------------------
 Title Card Required
 -------------------
 Charge =  0 Multiplicity = 1

                         Standard orientation:
 ---------------------------------------------------------------------
 Center     Atomic      Atomic             Coordinates (Angstroms)
 Number     Number       Type             X           Y           Z
 ---------------------------------------------------------------------
      1          6           0       -0.248502    0.412173    0.000041
      2          8           0       -1.243986   -0.288621   -0.000010
      3          1           0       -0.324472    1.513410   -0.000080
      4          6           0        1.190703   -0.139808   -0.000005
      5          1           0        1.357494   -0.755999   -0.879295
      6          1           0        1.908037    0.673228   -0.000121
      7          1           0        1.357626   -0.755859    0.879359
 ---------------------------------------------------------------------

 SCF Done:  E(RHF) =  -150.944207636     A.U. after    1 cycles

 The electronic state is 1-A.
 Alpha  occ. eigenvalues --  -20.29036 -11.12241 -11.05406  -1.32826  -0.95772
 Alpha  occ. eigenvalues --   -0.74665  -0.60640  -0.55891  -0.54504  -0.50104
 Alpha  occ. eigenvalues --   -0.41469  -0.33606
 Alpha virt. eigenvalues --    0.28925   0.60835   0.66050   0.71218   0.73566
 Alpha virt. eigenvalues --    0.76495   0.96481

 Mulliken charges:
               1
     1  C    0.145606
     2  O   -0.209806
     3  H    0.047977
     4  C   -0.207376
     5  H    0.076942
     6  H    0.069719
     7  H    0.076940
 Sum of Mulliken charges =   0.00000

 Dipole moment (field-independent basis, Debye):
    X=              1.5520    Y=              0.7925    Z=              0.0000  Tot=              1.7426
 Quadrupole moment (field-independent basis, Debye-Ang):
   XX=            -19.1184   YY=            -16.7577   ZZ=            -16.4259
   XY=             -0.8459   XZ=              0.0000   YZ=              0.0000

  Exact polarizability:  15.254   1.908  12.390   0.000   0.000   7.688
 Approx polarizability:  14.495   4.092  11.567   0.001   0.000   6.141

 ******    1 imaginary frequencies (negative Signs) ******

                      1                      2                      3
                      A                      A                      A
 Frequencies --   -173.1995               554.7689               881.2451
 Red. masses --      1.1958                 3.0656                 1.2361
 Frc consts  --      0.0211                 0.5559                 0.5656
 IR Inten    --      2.5833                 9.8415                 2.0519
 Raman Activ --      0.8285                 1.5085                 3.1529

                      4                      5                      6
                      A                      A                      A
 Frequencies --   1088.5770              1284.2512              1284.3572
 Red. masses --      2.2504                 1.7728                 1.5666
 Frc consts  --      1.5712                 1.7227                 1.5226
 IR Inten    --      2.0910                24.6381                 0.6014
 Raman Activ --      6.3605                 4.6374                 0.0571

                      7                      8                      9
                      A                      A                      A
 Frequencies --   1621.1477              1709.7999              1807.4020
 Red. masses --      1.1769                 1.2736                 1.0517
 Frc consts  --      1.8224                 2.1937                 2.0242
 IR Inten    --     17.5511                 4.8727                 4.0228
 Raman Activ --      7.8625                 6.1715                16.0881

                     10                     11                     12
                      A                      A                      A
 Frequencies --   1811.9395              2112.2998              3544.1294
 Red. masses --      1.0486                 8.7050                 1.0907
 Frc consts  --      2.0284                22.8838                 8.0721
 IR Inten    --      2.5925                28.9192                24.6770
 Raman Activ --     15.9645                 5.9237                34.7087

                     13                     14                     15
                      A                      A                      A
 Frequencies --   3569.4356              3742.7791              3765.9575
 Red. masses --      1.0394                 1.1068                 1.1098
 Frc consts  --      7.8028                 9.1351                 9.2739
 IR Inten    --      0.9012                 0.0438                 0.2565
 Raman Activ --     42.9214                29.0833                26.7015

 - Thermochemistry -
 -------------------
 Temperature   298.150 Kelvin.  Pressure   1.00000 Atm.
 Atom     1 has atomic number  6 and mass  12.00000

 Molecular mass:    44.02621 amu.
 Principal axes and moments of inertia in atomic units:
                           1         2         3
     Eigenvalues --    32.27419 182.75368 203.89663
           X            0.99961  -0.02808   0.00000
           Y            0.02808   0.99961  -0.00002
           Z            0.00000   0.00002   1.00000
 This molecule is an asymmetric top.
 Rotational symmetry number  1.
 Rotational temperatures (Kelvin)      2.68369     0.47394     0.42479
 Rotational constants (GHZ):          55.91902     9.87527     8.85126
    1 imaginary frequencies ignored.
 Zero-point vibrational energy     172131.2 (Joules/Mol)
                                   41.14034 (Kcal/Mol)
 Warning -- explicit consideration of   1 degrees of freedom as
           vibrations may cause significant error
 Vibrational temperatures:    798.19  1267.91  1566.22  1847.75  1847.90
          (Kelvin)           2332.47  2460.02  2600.45  2606.97  3039.12
                             5099.21  5135.62  5385.02  5418.37

 Zero-point correction=                           0.065561 (Hartree/Particle)
 Thermal correction to Energy=                    0.068696
 Thermal correction to Enthalpy=                  0.069641
 Thermal correction to Gibbs Free Energy=         0.041221
 Sum of electronic and zero-point Energies=           -150.878646
 Sum of electronic and thermal Energies=              -150.875511
 Sum of electronic and thermal Enthalpies=            -150.874567
 Sum of electronic and thermal Free Energies=         -150.902986

                     E (Thermal)             CV                S
                      KCal/Mol        Cal/Mol-Kelvin    Cal/Mol-Kelvin
 Total                   43.108              8.359             59.813
 Electronic               0.000              0.000              0.000
 Translational            0.889              2.981             37.273
 Rotational               0.889              2.981             21.713
 Vibrational             41.330              2.398              0.827
 Vibration     1          0.910              1.129              0.534

 Optimization completed.
    -- Stationary point found.
 Normal termination of Gaussian 09 at Wed Feb 19 02:21:06 2025.
