 Gaussian 09, Revision D.01,
 Gaussian 09:  AM64L-G09RevD.01 24-Apr-2013

 --------------------------------------
 # opt freq hf/sto-3g geom=connectivity
 --------------------------------------

 -------------------
 Title Card Required
 -------------------
 Symbolic Z-matrix:
 Charge =  0 Multiplicity = 1

 SCF Done:  E(RHF) =  -39.7262784142     A.U. after    6 cycles
 SCF Done:  E(RHF) =  -39.7268094775     A.U. after    5 cycles
 SCF Done:  E(RHF) =  -39.7268636774     A.U. after    5 cycles
 Optimization completed.
    -- Stationary point found.
 Normal termination of Gaussian 09 at Wed Feb 19 03:34:09 2025.

 ---------------------------------------------------------------
 #N Geom=AllCheck Guess=TCheck SCRF=Check GenChk RHF/STO-3G Freq
 ---------------------------------------------------------------

 Structure from the checkpoint file:  "ch4.chk"
 -------------------
 Title Card Required
 -------------------
 Charge =  0 Multiplicity = 1

                         Standard orientation:
 ---------------------------------------------------------------------
 Center     Atomic      Atomic             Coordinates (Angstroms)
 Number     Number       Type             X           Y           Z
 ---------------------------------------------------------------------
      1          6           0        0.000000    0.000000    0.000000
      2          1           0        0.625276    0.625276    0.625276
      3          1           0       -0.625276   -0.625276    0.625276
      4          1           0       -0.625276    0.625276   -0.625276
      5          1           0        0.625276   -0.625276   -0.625276
 ---------------------------------------------------------------------

 SCF Done:  E(RHF) =  -39.7268636774     A.U. after    1 cycles

 The electronic state is 1-A1.
 Alpha  occ. eigenvalues --  -11.02969  -0.91210  -0.52050  -0.52050  -0.52050
 Alpha virt. eigenvalues --    0.71922   0.71922   0.71922   0.76106

 Mulliken charges:
               1
     1  C   -0.262635
     2  H    0.065659
     3  H    0.065659
     4  H    0.065659
     5  H    0.065659
 Sum of Mulliken charges =   0.00000

 Dipole moment (field-independent basis, Debye):
    X=              0.0000    Y=              0.0000    Z=              0.0000  Tot=              0.0000
 Quadrupole moment (field-independent basis, Debye-Ang):
   XX=             -7.8407   YY=             -7.8407   ZZ=             -7.8407
   XY=              0.0000   XZ=              0.0000   YZ=              0.0000

  Exact polarizability:   5.567   0.000   5.567   0.000   0.000   5.567
 Approx polarizability:   4.413   0.000   4.413   0.000   0.000   4.413

                      1                      2                      3
                     T2                     T2                     T2
 Frequencies --   1675.7548              1675.7548              1675.7548
 Red. masses --      1.1714                 1.1714                 1.1714
 Frc consts  --      1.9382                 1.9382                 1.9382
 IR Inten    --      6.6439                 6.6439                 6.6439
 Raman Activ --      3.8438                 3.8438                 3.8438

                      4                      5                      6
                      E                      E                     A1
 Frequencies --   1903.7184              1903.7184              3525.9189
 Red. masses --      1.0078                 1.0078                 1.0078
 Frc consts  --      2.1520                 2.1520                 7.3821
 IR Inten    --      0.0000                 0.0000                 0.0000
 Raman Activ --     21.6711                21.6711                41.7310

                      7                      8                      9
                     T2                     T2                     T2
 Frequencies --   3786.6308              3786.6308              3786.6308
 Red. masses --      1.1083                 1.1083                 1.1083
 Frc consts  --      9.3631                 9.3631                 9.3631
 IR Inten    --      0.4675                 0.4675                 0.4675
 Raman Activ --     21.2830                21.2830                21.2830

 - Thermochemistry -
 -------------------
 Temperature   298.150 Kelvin.  Pressure   1.00000 Atm.
 Atom     1 has atomic number  6 and mass  12.00000

 Molecular mass:    16.03130 amu.
 Principal axes and moments of inertia in atomic units:
                           1         2         3
     Eigenvalues --    11.25684  11.25684  11.25684
           X            0.10691   0.01266   0.99419
           Y           -0.30722   0.95141   0.02092
           Z            0.94561   0.30768  -0.10560
 This molecule is a spherical top.
 Rotational symmetry number 12.
 Rotational temperatures (Kelvin)      7.69433     7.69433     7.69433
 Rotational constants (GHZ):         160.32400   160.32400   160.32400
 Zero-point vibrational energy     141880.2 (Joules/Mol)
                                   33.91017 (Kcal/Mol)
 Vibrational temperatures:   2411.03  2411.03  2411.03  2739.02  2739.02
          (Kelvin)           5073.00  5448.11  5448.11  5448.11

 Zero-point correction=                           0.054039 (Hartree/Particle)
 Thermal correction to Energy=                    0.056881
 Thermal correction to Enthalpy=                  0.057825
 Thermal correction to Gibbs Free Energy=         0.036746
 Sum of electronic and zero-point Energies=            -39.672824
 Sum of electronic and thermal Energies=               -39.669983
 Sum of electronic and thermal Enthalpies=             -39.669039
 Sum of electronic and thermal Free Energies=          -39.690117

                     E (Thermal)             CV                S
                      KCal/Mol        Cal/Mol-Kelvin    Cal/Mol-Kelvin
 Total                   35.693              6.116             44.363
 Electronic               0.000              0.000              0.000
 Translational            0.889              2.981             34.261
 Rotational               0.889              2.981             10.081
 Vibrational             33.916              0.154              0.021

 Optimization completed.
    -- Stationary point found.
 Normal termination of Gaussian 09 at Wed Feb 19 03:34:10 2025.
