 Gaussian 09, Revision D.01,
 Gaussian 09:  AM64L-G09RevD.01 24-Apr-2013

 --------------------------------------
 # opt freq hf/sto-3g geom=connectivity
 --------------------------------------

 -------------------
 Title Card Required
 -------------------
 Symbolic Z-matrix:
 Charge =  0 Multiplicity = 1

 SCF Done:  E(RHF) =  -185.049406545     A.U. after    9 cycles
 SCF Done:  E(RHF) =  -185.067706469     A.U. after    9 cycles
 SCF Done:  E(RHF) =  -185.068390601     A.U. after    8 cycles
 Optimization completed.
    -- Stationary point found.
 Normal termination of Gaussian 09 at Wed Feb 19 03:40:11 2025.

 ---------------------------------------------------------------
 #N Geom=AllCheck Guess=TCheck SCRF=Check GenChk RHF/STO-3G Freq
 ---------------------------------------------------------------

 Structure from the checkpoint file:  "co2.chk"
 -------------------
 Title Card Required
 -------------------
 Charge =  0 Multiplicity = 1

                         Standard orientation:
 ---------------------------------------------------------------------
 Center     Atomic      Atomic             Coordinates (Angstroms)
 Number     Number       Type             X           Y           Z
 ---------------------------------------------------------------------
      1          6           0        0.000000    0.000000    0.000000
      2          8           0        0.000000    0.000000    1.187970
      3          8           0        0.000000    0.000000   -1.187970
 ---------------------------------------------------------------------

 SCF Done:  E(RHF) =  -185.068390601     A.U. after    1 cycles

 The electronic state is 1-SGG.
 Alpha  occ. eigenvalues --  -20.35690 -20.35665 -11.26305  -1.43279  -1.36824
 Alpha  occ. eigenvalues --   -0.68101  -0.62076  -0.62076  -0.58315  -0.38766
 Alpha  occ. eigenvalues --   -0.38766
 Alpha virt. eigenvalues --    0.31058   0.31058   0.53743   1.30801

 Mulliken charges:
               1
     1  C    0.443852
     2  O   -0.221926
     3  O   -0.221926
 Sum of Mulliken charges =   0.00000

 Dipole moment (field-independent basis, Debye):
    X=              0.0000    Y=              0.0000    Z=              0.0000  Tot=              0.0000
 Quadrupole moment (field-independent basis, Debye-Ang):
   XX=            -13.0962   YY=            -13.0962   ZZ=            -18.3451
   XY=              0.0000   XZ=              0.0000   YZ=              0.0000

  Exact polarizability:   2.324   0.000   2.324   0.000   0.000  15.105
 Approx polarizability:   1.592   0.000   1.592   0.000   0.000  28.195

                      1                      2                      3
                     PIU                    PIU                    SGG
 Frequencies --    566.2442               566.2442              1435.2233
 Red. masses --     12.8774                12.8774                15.9949
 Frc consts  --      2.4327                 2.4327                19.4120
 IR Inten    --     33.9726                33.9726                 0.0000
 Raman Activ --      0.0000                 0.0000                 7.8735

                      4
                     SGU
 Frequencies --   2535.7089
 Red. masses --     12.8774
 Frc consts  --     48.7838
 IR Inten    --    342.2752
 Raman Activ --      0.0000

 - Thermochemistry -
 -------------------
 Temperature   298.150 Kelvin.  Pressure   1.00000 Atm.
 Atom     1 has atomic number  6 and mass  12.00000

 Molecular mass:    43.98983 amu.
 Principal axes and moments of inertia in atomic units:
                           1         2         3
     Eigenvalues --     0.00000 161.22065 161.22065
           X            0.00000   1.00000   0.00000
           Y            0.00000   0.00000   1.00000
           Z            1.00000   0.00000   0.00000
 This molecule is a prolate symmetric top.
 Rotational symmetry number  2.
 Rotational temperature (Kelvin)      0.53724
 Rotational constant (GHZ):          11.194231
 Zero-point vibrational energy      30525.2 (Joules/Mol)
                                    7.29571 (Kcal/Mol)
 Warning -- explicit consideration of   2 degrees of freedom as
           vibrations may cause significant error
 Vibrational temperatures:    814.70   814.70  2064.96  3648.31
          (Kelvin)

 Zero-point correction=                           0.011626 (Hartree/Particle)
 Thermal correction to Energy=                    0.014352
 Thermal correction to Enthalpy=                  0.015297
 Thermal correction to Gibbs Free Energy=        -0.009161
 Sum of electronic and zero-point Energies=           -185.056764
 Sum of electronic and thermal Energies=              -185.054038
 Sum of electronic and thermal Enthalpies=            -185.053094
 Sum of electronic and thermal Free Energies=         -185.077552

                     E (Thermal)             CV                S
                      KCal/Mol        Cal/Mol-Kelvin    Cal/Mol-Kelvin
 Total                    9.006              7.272             51.476
 Electronic               0.000              0.000              0.000
 Translational            0.889              2.981             37.270
 Rotational               0.592              1.987             13.167
 Vibrational              7.525              2.304              1.039
 Vibration     1          0.922              1.104              0.512
 Vibration     2          0.922              1.104              0.512

 Optimization completed.
    -- Stationary point found.
 Normal termination of Gaussian 09 at Wed Feb 19 03:40:12 2025.
