 Gaussian 09, Revision D.01,
 Gaussian 09:  AM64L-G09RevD.01 24-Apr-2013

 --------------------------------------
 # opt freq hf/sto-3g geom=connectivity
 --------------------------------------

 -------------------
 Title Card Required
 -------------------
 Symbolic Z-matrix:
 Charge =  0 Multiplicity = 1

 SCF Done:  E(RHF) =  -147.542175520     A.U. after    5 cycles
 SCF Done:  E(RHF) =  -147.551251156     A.U. after    6 cycles
 SCF Done:  E(RHF) =  -147.551571707     A.U. after    4 cycles
 Optimization completed.
    -- Stationary point found.
 Normal termination of Gaussian 09 at Wed Feb 19 03:37:44 2025.

 ---------------------------------------------------------------
 #N Geom=AllCheck Guess=TCheck SCRF=Check GenChk RHF/STO-3G Freq
 ---------------------------------------------------------------

 Structure from the checkpoint file:  "o2.chk"
 -------------------
 Title Card Required
 -------------------
 Charge =  0 Multiplicity = 1

                         Standard orientation:
 ---------------------------------------------------------------------
 Center     Atomic      Atomic             Coordinates (Angstroms)
 Number     Number       Type             X           Y           Z
 ---------------------------------------------------------------------
      1          8           0        0.000000    0.000000    0.610821
      2          8           0        0.000000    0.000000   -0.610821
 ---------------------------------------------------------------------

 SCF Done:  E(RHF) =  -147.551571707     A.U. after    1 cycles

 Unable to determine electronic state:  partially filled degenerate orbitals.
 Alpha  occ. eigenvalues --  -20.42248 -20.42185  -1.54115  -0.99597  -0.63509
 Alpha  occ. eigenvalues --   -0.57752  -0.50996  -0.33397
 Alpha virt. eigenvalues --    0.18354   0.71120

 Mulliken charges:
               1
     1  O    0.000000
     2  O    0.000000
 Sum of Mulliken charges =   0.00000

 Dipole moment (field-independent basis, Debye):
    X=              0.0000    Y=              0.0000    Z=              0.0000  Tot=              0.0000
 Quadrupole moment (field-independent basis, Debye-Ang):
   XX=             -9.2146   YY=             -7.7403   ZZ=             -9.6874
   XY=              0.0000   XZ=              0.0000   YZ=              0.0000

  Exact polarizability:   0.232   0.000   1.690   0.000   0.000   7.080
 Approx polarizability:   0.114   0.000   1.261   0.000   0.000  11.170

                      1
                     SGG
 Frequencies --   2065.8194
 Red. masses --     15.9949
 Frc consts  --     40.2177
 IR Inten    --      0.0000
 Raman Activ --      7.6864

 - Thermochemistry -
 -------------------
 Temperature   298.150 Kelvin.  Pressure   1.00000 Atm.
 Atom     1 has atomic number  8 and mass  15.99491

 Molecular mass:    31.98983 amu.
 Principal axes and moments of inertia in atomic units:
                           1         2         3
     Eigenvalues --     0.00000  42.62231  42.62231
           X            0.00000   1.00000   0.00000
           Y            0.00000   0.00000   1.00000
           Z            1.00000   0.00000   0.00000
 This molecule is a prolate symmetric top.
 Rotational symmetry number  2.
 Rotational temperature (Kelvin)      2.03212
 Rotational constant (GHZ):          42.342641
 Zero-point vibrational energy      12356.3 (Joules/Mol)
                                    2.95324 (Kcal/Mol)
 Vibrational temperatures:   2972.25
          (Kelvin)

 Zero-point correction=                           0.004706 (Hartree/Particle)
 Thermal correction to Energy=                    0.007067
 Thermal correction to Enthalpy=                  0.008011
 Thermal correction to Gibbs Free Energy=        -0.014246
 Sum of electronic and zero-point Energies=           -147.546865
 Sum of electronic and thermal Energies=              -147.544505
 Sum of electronic and thermal Enthalpies=            -147.543560
 Sum of electronic and thermal Free Energies=         -147.565818

                     E (Thermal)             CV                S
                      KCal/Mol        Cal/Mol-Kelvin    Cal/Mol-Kelvin
 Total                    4.435              4.977             46.845
 Electronic               0.000              0.000              0.000
 Translational            0.889              2.981             36.321
 Rotational               0.592              1.987             10.523
 Vibrational              2.954              0.009              0.001

 Optimization completed.
    -- Stationary point found.
 Normal termination of Gaussian 09 at Wed Feb 19 03:37:45 2025.
