 Gaussian 09, Revision D.01,
 Gaussian 09:  AM64L-G09RevD.01 24-Apr-2013

 ----------------------------------------------
 # opt=modredundant hf/sto-3g geom=connectivity
 ----------------------------------------------

 -------------------
 Title Card Required
 -------------------
 Symbolic Z-matrix:
 Charge =  0 Multiplicity = 1

 SCF Done:  E(RHF) =  -155.462443757     A.U. after    8 cycles
 SCF Done:  E(RHF) =  -155.466212997     A.U. after    7 cycles
 SCF Done:  E(RHF) =  -155.466627911     A.U. after    7 cycles
 SCF Done:  E(RHF) =  -155.466644755     A.U. after    6 cycles
 Optimization completed.
    -- Stationary point found.
 SCF Done:  E(RHF) =  -155.461274403     A.U. after    9 cycles
 SCF Done:  E(RHF) =  -155.465492034     A.U. after    8 cycles
 SCF Done:  E(RHF) =  -155.465896410     A.U. after    8 cycles
 SCF Done:  E(RHF) =  -155.465905262     A.U. after    7 cycles
 Optimization completed.
 SCF Done:  E(RHF) =  -155.456957783     A.U. after    9 cycles
 SCF Done:  E(RHF) =  -155.462220418     A.U. after    8 cycles
 SCF Done:  E(RHF) =  -155.463776873     A.U. after    6 cycles
 SCF Done:  E(RHF) =  -155.456112725     A.U. after   10 cycles
 SCF Done:  E(RHF) =  -155.464827275     A.U. after    9 cycles
 SCF Done:  E(RHF) =  -155.465894754     A.U. after    8 cycles
 SCF Done:  E(RHF) =  -155.465905297     A.U. after    7 cycles
 SCF Done:  E(RHF) =  -155.465905511     A.U. after    6 cycles
    -- Stationary point found.
 SCF Done:  E(RHF) =  -155.461389303     A.U. after    9 cycles
 SCF Done:  E(RHF) =  -155.466307427     A.U. after    8 cycles
 SCF Done:  E(RHF) =  -155.466644331     A.U. after    7 cycles
 SCF Done:  E(RHF) =  -155.466646188     A.U. after    6 cycles
 Optimization completed.
    -- Stationary point found.

                         Standard orientation:
 ---------------------------------------------------------------------
 Center     Atomic      Atomic             Coordinates (Angstroms)
 Number     Number       Type             X           Y           Z
 ---------------------------------------------------------------------
      1          6           0       -1.965983   -0.125022   -0.000007
      2          1           0       -2.740657    0.636055   -0.000338
      3          1           0       -2.101310   -0.747297    0.879727
      4          1           0       -2.101041   -0.747580   -0.879497
      5          6           0       -0.568095    0.523634    0.000034
      6          1           0       -0.467631    1.162150    0.875883
      7          1           0       -0.467796    1.162392   -0.875726
      8          6           0        0.568013   -0.523406   -0.000011
      9          1           0        0.467406   -1.162005   -0.875745
     10          1           0        0.467266   -1.162207    0.875626
     11          6           0        1.966094    0.124898    0.000005
     12          1           0        2.101540    0.747493    0.879407
     13          1           0        2.740409   -0.636713    0.000186
     14          1           0        2.101643    0.747088   -0.879648
 ---------------------------------------------------------------------

 The electronic state is 1-A.
 Alpha  occ. eigenvalues --  -11.03850 -11.03819 -11.03167 -11.03165  -1.02748
 Alpha  occ. eigenvalues --   -0.94261  -0.82733  -0.75843  -0.61027  -0.55547
 Alpha  occ. eigenvalues --   -0.54185  -0.53947  -0.48529  -0.46959  -0.43286
 Alpha  occ. eigenvalues --   -0.43090  -0.41489
 Alpha virt. eigenvalues --    0.60126   0.61736   0.65210   0.68377   0.68723
 Alpha virt. eigenvalues --    0.73684   0.75069   0.76558   0.76768   0.76832
 Alpha virt. eigenvalues --    0.79784   0.80018   0.83151

 Mulliken charges:
               1
     1  C   -0.178160
     2  H    0.057558
     3  H    0.056411
     4  H    0.056421
     5  C   -0.094360
     6  H    0.051063
     7  H    0.051055
     8  C   -0.094377
     9  H    0.051068
    10  H    0.051063
    11  C   -0.178153
    12  H    0.056431
    13  H    0.057544
    14  H    0.056435
 Sum of Mulliken charges =   0.00000

 Dipole moment (field-independent basis, Debye):
    X=              0.0001    Y=             -0.0001    Z=             -0.0001  Tot=              0.0001
 Quadrupole moment (field-independent basis, Debye-Ang):
   XX=            -27.3395   YY=            -26.7872   ZZ=            -26.4547
   XY=             -0.1435   XZ=              0.0001   YZ=             -0.0002

 Normal termination of Gaussian 09 at Wed Feb 19 02:54:31 2025.
