 Gaussian 09, Revision D.01,
 Gaussian 09:  AM64L-G09RevD.01 24-Apr-2013

 --------------------------------------
 # opt freq hf/sto-3g geom=connectivity
 --------------------------------------

 -------------------
 Title Card Required
 -------------------
 Symbolic Z-matrix:
 Charge =  0 Multiplicity = 1

 SCF Done:  E(RHF) =  -455.135586096     A.U. after    6 cycles
 SCF Done:  E(RHF) =  -455.135934031     A.U. after    5 cycles
 SCF Done:  E(RHF) =  -455.136011655     A.U. after    5 cycles
 Optimization completed.
    -- Stationary point found.
 Normal termination of Gaussian 09 at Wed Feb 19 03:43:17 2025.

 ---------------------------------------------------------------
 #N Geom=AllCheck Guess=TCheck SCRF=Check GenChk RHF/STO-3G Freq
 ---------------------------------------------------------------

 Structure from the checkpoint file:  "hcl.chk"
 -------------------
 Title Card Required
 -------------------
 Charge =  0 Multiplicity = 1

                         Standard orientation:
 ---------------------------------------------------------------------
 Center     Atomic      Atomic             Coordinates (Angstroms)
 Number     Number       Type             X           Y           Z
 ---------------------------------------------------------------------
      1         17           0        0.000000    0.000000    0.072963
      2          1           0        0.000000    0.000000   -1.240372
 ---------------------------------------------------------------------

 SCF Done:  E(RHF) =  -455.136011655     A.U. after    1 cycles

 The electronic state is 1-SG.
 Alpha  occ. eigenvalues -- -103.71879 -10.40017  -7.84482  -7.83847  -7.83847
 Alpha  occ. eigenvalues --   -1.03426  -0.55577  -0.42021  -0.42021
 Alpha virt. eigenvalues --    0.37781

 Mulliken charges:
               1
     1  Cl  -0.173622
     2  H    0.173622
 Sum of Mulliken charges =   0.00000

 Dipole moment (field-independent basis, Debye):
    X=              0.0000    Y=              0.0000    Z=             -1.7650  Tot=              1.7650
 Quadrupole moment (field-independent basis, Debye-Ang):
   XX=            -12.5630   YY=            -12.5630   ZZ=             -9.8556
   XY=              0.0000   XZ=              0.0000   YZ=              0.0000

  Exact polarizability:   0.213   0.000   0.213   0.000   0.000   8.053
 Approx polarizability:   0.119   0.000   0.119   0.000   0.000   7.402

                      1
                     SG
 Frequencies --   3372.5361
 Red. masses --      1.0360
 Frc consts  --      6.9427
 IR Inten    --     27.8868
 Raman Activ --     58.7253

 - Thermochemistry -
 -------------------
 Temperature   298.150 Kelvin.  Pressure   1.00000 Atm.
 Atom     1 has atomic number 17 and mass  34.96885

 Molecular mass:    35.97668 amu.
 Principal axes and moments of inertia in atomic units:
                           1         2         3
     Eigenvalues --     0.00000   6.03385   6.03385
           X            0.00000   0.00000   1.00000
           Y            0.00000   1.00000   0.00000
           Z            1.00000   0.00000   0.00000
 This molecule is a prolate symmetric top.
 Rotational symmetry number  1.
 Rotational temperature (Kelvin)     14.35466
 Rotational constant (GHZ):         299.103010
 Zero-point vibrational energy      20172.2 (Joules/Mol)
                                    4.82128 (Kcal/Mol)
 Vibrational temperatures:   4852.32
          (Kelvin)

 Zero-point correction=                           0.007683 (Hartree/Particle)
 Thermal correction to Energy=                    0.010044
 Thermal correction to Enthalpy=                  0.010988
 Thermal correction to Gibbs Free Energy=        -0.010244
 Sum of electronic and zero-point Energies=           -455.128328
 Sum of electronic and thermal Energies=              -455.125968
 Sum of electronic and thermal Enthalpies=            -455.125024
 Sum of electronic and thermal Free Energies=         -455.146256

                     E (Thermal)             CV                S
                      KCal/Mol        Cal/Mol-Kelvin    Cal/Mol-Kelvin
 Total                    6.302              4.968             44.686
 Electronic               0.000              0.000              0.000
 Translational            0.889              2.981             36.671
 Rotational               0.592              1.987              8.015
 Vibrational              4.821              0.000              0.000

 Optimization completed.
    -- Stationary point found.
 Normal termination of Gaussian 09 at Wed Feb 19 03:43:18 2025.
