 Gaussian 09, Revision D.01,
 Gaussian 09:  AM64L-G09RevD.01 24-Apr-2013

 --------------------------------------
 # opt freq hf/sto-3g geom=connectivity
 --------------------------------------

 -------------------
 Title Card Required
 -------------------
 Symbolic Z-matrix:
 Charge =  0 Multiplicity = 1

 SCF Done:  E(RHF) =  -614.522371820     A.U. after    8 cycles
 SCF Done:  E(RHF) =  -614.528429442     A.U. after    8 cycles
 SCF Done:  E(RHF) =  -614.528581222     A.U. after    7 cycles
 Optimization completed.
    -- Stationary point found.
 Normal termination of Gaussian 09 at Wed Feb 19 03:48:15 2025.

 ---------------------------------------------------------------
 #N Geom=AllCheck Guess=TCheck SCRF=Check GenChk RHF/STO-3G Freq
 ---------------------------------------------------------------

 Structure from the checkpoint file:  "nacl.chk"
 -------------------
 Title Card Required
 -------------------
 Charge =  0 Multiplicity = 1

                         Standard orientation:
 ---------------------------------------------------------------------
 Center     Atomic      Atomic             Coordinates (Angstroms)
 Number     Number       Type             X           Y           Z
 ---------------------------------------------------------------------
      1         11           0        0.000000    0.000000   -1.348198
      2         17           0        0.000000    0.000000    0.872364
 ---------------------------------------------------------------------

 SCF Done:  E(RHF) =  -614.528581222     A.U. after    1 cycles

 The electronic state is 1-SG.
 Alpha  occ. eigenvalues -- -103.34450 -40.27229 -10.05922  -7.50092  -7.49917
 Alpha  occ. eigenvalues --   -7.49917  -2.82584  -1.48059  -1.47988  -1.47988
 Alpha  occ. eigenvalues --   -0.78733  -0.22932  -0.21367  -0.21367
 Alpha virt. eigenvalues --    0.40049   0.68302   0.68302   0.87520

 Mulliken charges:
               1
     1  Na   0.787726
     2  Cl  -0.787726
 Sum of Mulliken charges =   0.00000

 Dipole moment (field-independent basis, Debye):
    X=              0.0000    Y=              0.0000    Z=             -9.1401  Tot=              9.1401
 Quadrupole moment (field-independent basis, Debye-Ang):
   XX=            -15.8173   YY=            -15.8173   ZZ=            -10.3525
   XY=              0.0000   XZ=              0.0000   YZ=              0.0000

  Exact polarizability:   0.872   0.000   0.872   0.000   0.000   7.278
 Approx polarizability:   0.662   0.000   0.662   0.000   0.000   5.789

                      1
                     SG
 Frequencies --    532.6597
 Red. masses --     26.6049
 Frc consts  --      4.4474
 IR Inten    --     69.8386
 Raman Activ --      0.1372

 - Thermochemistry -
 -------------------
 Temperature   298.150 Kelvin.  Pressure   1.00000 Atm.
 Atom     1 has atomic number 11 and mass  22.98977

 Molecular mass:    57.95862 amu.
 Principal axes and moments of inertia in atomic units:
                           1         2         3
     Eigenvalues --     0.00000 244.24260 244.24260
           X            0.00000   0.00000   1.00000
           Y            0.00000   1.00000   0.00000
           Z            1.00000   0.00000   0.00000
 This molecule is a prolate symmetric top.
 Rotational symmetry number  1.
 Rotational temperature (Kelvin)      0.35462
 Rotational constant (GHZ):           7.389134
 Zero-point vibrational energy       3186.0 (Joules/Mol)
                                    0.76148 (Kcal/Mol)
 Warning -- explicit consideration of   1 degrees of freedom as
           vibrations may cause significant error
 Vibrational temperatures:    766.38
          (Kelvin)

 Zero-point correction=                           0.001213 (Hartree/Particle)
 Thermal correction to Energy=                    0.003775
 Thermal correction to Enthalpy=                  0.004719
 Thermal correction to Gibbs Free Energy=        -0.020958
 Sum of electronic and zero-point Energies=           -614.527368
 Sum of electronic and thermal Energies=              -614.524806
 Sum of electronic and thermal Enthalpies=            -614.523862
 Sum of electronic and thermal Free Energies=         -614.549540

                     E (Thermal)             CV                S
                      KCal/Mol        Cal/Mol-Kelvin    Cal/Mol-Kelvin
 Total                    2.369              6.146             54.043
 Electronic               0.000              0.000              0.000
 Translational            0.889              2.981             38.092
 Rotational               0.592              1.987             15.370
 Vibrational              0.888              1.178              0.581
 Vibration     1          0.888              1.178              0.581

 Optimization completed.
    -- Stationary point found.
 Normal termination of Gaussian 09 at Wed Feb 19 03:48:16 2025.
