 Gaussian 09, Revision D.01,
 Gaussian 09:  AM64L-G09RevD.01 24-Apr-2013

 --------------------------------------
 # opt freq hf/sto-3g geom=connectivity
 --------------------------------------

 -------------------
 Title Card Required
 -------------------
 Symbolic Z-matrix:
 Charge =  0 Multiplicity = 1

 SCF Done:  E(RHF) =  -234.194202405     A.U. after   11 cycles
 SCF Done:  E(RHF) =  -234.211865131     A.U. after   10 cycles
 SCF Done:  E(RHF) =  -234.213467038     A.U. after   10 cycles
 SCF Done:  E(RHF) =  -234.213556221     A.U. after    9 cycles
 SCF Done:  E(RHF) =  -234.213575240     A.U. after    9 cycles
 SCF Done:  E(RHF) =  -234.213575705     A.U. after    7 cycles
 Optimization completed.
    -- Stationary point found.
 Normal termination of Gaussian 09 at Wed Feb 19 03:45:59 2025.

 ---------------------------------------------------------------
 #N Geom=AllCheck Guess=TCheck SCRF=Check GenChk RHF/STO-3G Freq
 ---------------------------------------------------------------

 Structure from the checkpoint file:  "naoh.chk"
 -------------------
 Title Card Required
 -------------------
 Charge =  0 Multiplicity = 1

                         Standard orientation:
 ---------------------------------------------------------------------
 Center     Atomic      Atomic             Coordinates (Angstroms)
 Number     Number       Type             X           Y           Z
 ---------------------------------------------------------------------
      1         11           0        0.049549   -0.846434    0.000000
      2          8           0        0.049549    1.011896    0.000000
      3          1           0       -0.941427    1.215608    0.000000
 ---------------------------------------------------------------------

 SCF Done:  E(RHF) =  -234.213575705     A.U. after    1 cycles

 The electronic state is 1-A'.
 Alpha  occ. eigenvalues --  -40.18775 -19.86767  -2.75323  -1.40723  -1.40598
 Alpha  occ. eigenvalues --   -1.40581  -0.95083  -0.28323  -0.13128  -0.12912
 Alpha virt. eigenvalues --    0.44867   0.73682   0.73940   0.82671   1.02168

 Mulliken charges:
               1
     1  Na   0.642306
     2  O   -0.592496
     3  H   -0.049810
 Sum of Mulliken charges =   0.00000

 Dipole moment (field-independent basis, Debye):
    X=             -0.3156    Y=             -6.8967    Z=              0.0000  Tot=              6.9039
 Quadrupole moment (field-independent basis, Debye-Ang):
   XX=             -8.9551   YY=             -9.3212   ZZ=             -9.4393
   XY=             -0.7982   XZ=              0.0000   YZ=              0.0000

  Exact polarizability:   5.492  -1.961   7.583   0.000   0.000   1.257
 Approx polarizability:   4.581  -0.663   5.526   0.000   0.000   0.867

                      1                      2                      3
                     A'                     A'                     A'
 Frequencies --    789.0797               861.7172              3856.2989
 Red. masses --      1.2023                 6.4649                 1.0663
 Frc consts  --      0.4411                 2.8284                 9.3424
 IR Inten    --      3.4151                83.7529               401.1494
 Raman Activ --      6.6772                 1.2453                42.4609

 - Thermochemistry -
 -------------------
 Temperature   298.150 Kelvin.  Pressure   1.00000 Atm.
 Atom     1 has atomic number 11 and mass  22.98977

 Molecular mass:    39.99251 amu.
 Principal axes and moments of inertia in atomic units:
                           1         2         3
     Eigenvalues --     3.27369 122.42003 125.69372
           X           -0.03795   0.99928   0.00000
           Y            0.99928   0.03795   0.00000
           Z            0.00000   0.00000   1.00000
 This molecule is an asymmetric top.
 Rotational symmetry number  1.
 Rotational temperatures (Kelvin)     26.45754     0.70751     0.68909
 Rotational constants (GHZ):         551.28625    14.74221    14.35825
 Zero-point vibrational energy      32939.7 (Joules/Mol)
                                    7.87279 (Kcal/Mol)
 Vibrational temperatures:   1135.31  1239.82  5548.35
          (Kelvin)

 Zero-point correction=                           0.012546 (Hartree/Particle)
 Thermal correction to Energy=                    0.015523
 Thermal correction to Enthalpy=                  0.016467
 Thermal correction to Gibbs Free Energy=        -0.010105
 Sum of electronic and zero-point Energies=           -234.201030
 Sum of electronic and thermal Energies=              -234.198053
 Sum of electronic and thermal Enthalpies=            -234.197109
 Sum of electronic and thermal Free Energies=         -234.223681

                     E (Thermal)             CV                S
                      KCal/Mol        Cal/Mol-Kelvin    Cal/Mol-Kelvin
 Total                    9.741              7.185             55.926
 Electronic               0.000              0.000              0.000
 Translational            0.889              2.981             36.986
 Rotational               0.889              2.981             18.561
 Vibrational              7.963              1.223              0.379

 Optimization completed.
    -- Stationary point found.
 Normal termination of Gaussian 09 at Wed Feb 19 03:46:00 2025.
